MODEL 1
REMARK minimizedAffinity -5.25063896
REMARK minimizedRMSD -1
REMARK  Name = crb16.pdb
REMARK  102 active torsions:
REMARK  status: ('A' for Active; 'I' for Inactive)
REMARK    1  A    between atoms: N_1  and  CA_2
REMARK    2  A    between atoms: CA_2  and  C_3
REMARK    3  A    between atoms: CA_2  and  CB_5
REMARK    4  A    between atoms: CB_5  and  CG_6
REMARK    5  A    between atoms: CG_6  and  CD2_7
REMARK    6  A    between atoms: CG_6  and  CD1_8
REMARK    7  A    between atoms: N_9  and  CA_10
REMARK    8  A    between atoms: CA_10  and  C_11
REMARK    9  A    between atoms: CA_10  and  CB_13
REMARK   10  A    between atoms: CB_13  and  CG1_14
REMARK   11  A    between atoms: CB_13  and  CG2_15
REMARK   12  A    between atoms: CG1_14  and  CD1_16
REMARK   13  A    between atoms: N_17  and  CA_18
REMARK   14  A    between atoms: CA_18  and  C_19
REMARK   15  A    between atoms: CA_18  and  CB_21
REMARK   16  A    between atoms: CB_21  and  OG_22
REMARK   17  A    between atoms: N_23  and  CA_24
REMARK   18  A    between atoms: CA_24  and  C_25
REMARK   19  A    between atoms: N_27  and  CA_28
REMARK   20  A    between atoms: CA_28  and  C_29
REMARK   21  A    between atoms: CA_28  and  CB_31
REMARK   22  A    between atoms: CB_31  and  CG_32
REMARK   23  A    between atoms: CG_32  and  CD2_33
REMARK   24  A    between atoms: CG_32  and  CD1_34
REMARK   25  A    between atoms: N_35  and  CA_36
REMARK   26  A    between atoms: CA_36  and  C_37
REMARK   27  A    between atoms: CA_36  and  CB_39
REMARK   28  A    between atoms: N_40  and  CA_41
REMARK   29  A    between atoms: CA_41  and  C_42
REMARK   30  A    between atoms: CA_41  and  CB_44
REMARK   31  A    between atoms: N_45  and  CA_46
REMARK   32  A    between atoms: CA_46  and  C_47
REMARK   33  A    between atoms: CA_46  and  CB_49
REMARK   34  A    between atoms: CB_49  and  CG_50
REMARK   35  A    between atoms: N_53  and  CA_54
REMARK   36  A    between atoms: CA_54  and  C_55
REMARK   37  A    between atoms: CA_54  and  CB_57
REMARK   38  A    between atoms: CB_57  and  CG_58
REMARK   39  A    between atoms: N_64  and  CA_65
REMARK   40  A    between atoms: CA_65  and  C_66
REMARK   41  A    between atoms: CA_65  and  CB_68
REMARK   42  A    between atoms: CB_68  and  CG_69
REMARK   43  A    between atoms: CG_69  and  CD2_70
REMARK   44  A    between atoms: CG_69  and  CD1_71
REMARK   45  A    between atoms: CA_73  and  C_74
REMARK   46  A    between atoms: N_79  and  CA_80
REMARK   47  A    between atoms: CA_80  and  C_81
REMARK   48  A    between atoms: CA_80  and  CB_83
REMARK   49  A    between atoms: CB_83  and  CG_84
REMARK   50  A    between atoms: CG_84  and  CD_85
REMARK   51  A    between atoms: N_88  and  CA_89
REMARK   52  A    between atoms: CA_89  and  C_90
REMARK   53  A    between atoms: CA_89  and  CB_92
REMARK   54  A    between atoms: CB_92  and  CG1_93
REMARK   55  A    between atoms: CB_92  and  CG2_94
REMARK   56  A    between atoms: CG1_93  and  CD1_95
REMARK   57  A    between atoms: N_96  and  CA_97
REMARK   58  A    between atoms: CA_97  and  C_98
REMARK   59  A    between atoms: CA_97  and  CB_100
REMARK   60  A    between atoms: CB_100  and  CG_101
REMARK   61  A    between atoms: CG_101  and  CD1_102
REMARK   62  A    between atoms: CG_101  and  CD2_103
REMARK   63  A    between atoms: N_104  and  CA_105
REMARK   64  A    between atoms: CA_105  and  C_106
REMARK   65  A    between atoms: CA_105  and  CB_108
REMARK   66  A    between atoms: CB_108  and  CG_109
REMARK   67  A    between atoms: CG_109  and  CD_110
REMARK   68  A    between atoms: CD_110  and  CE_111
REMARK   69  A    between atoms: CE_111  and  NZ_112
REMARK   70  A    between atoms: N_113  and  CA_114
REMARK   71  A    between atoms: CA_114  and  C_115
REMARK   72  A    between atoms: CA_114  and  CB_117
REMARK   73  A    between atoms: CB_117  and  CG_118
REMARK   74  A    between atoms: CG_118  and  CD_119
REMARK   75  A    between atoms: CD_119  and  CE_120
REMARK   76  A    between atoms: CE_120  and  NZ_121
REMARK   77  A    between atoms: N_122  and  CA_123
REMARK   78  A    between atoms: CA_123  and  C_124
REMARK   79  A    between atoms: CA_123  and  CB_126
REMARK   80  A    between atoms: CB_126  and  CG1_127
REMARK   81  A    between atoms: CB_126  and  CG2_128
REMARK   82  A    between atoms: CG1_127  and  CD1_129
REMARK   83  A    between atoms: N_130  and  CA_131
REMARK   84  A    between atoms: CA_131  and  C_132
REMARK   85  A    between atoms: CA_131  and  CB_134
REMARK   86  A    between atoms: N_135  and  CA_136
REMARK   87  A    between atoms: CA_136  and  C_137
REMARK   88  A    between atoms: CA_136  and  CB_139
REMARK   89  A    between atoms: CB_139  and  CG_140
REMARK   90  A    between atoms: CG_140  and  CD_141
REMARK   91  A    between atoms: CD_141  and  NE_142
REMARK   92  A    between atoms: N_146  and  CA_147
REMARK   93  A    between atoms: CA_147  and  C_148
REMARK   94  A    between atoms: CA_147  and  CB_150
REMARK   95  A    between atoms: CB_150  and  CG_151
REMARK   96  A    between atoms: CG_151  and  CD_152
REMARK   97  A    between atoms: CD_152  and  CE_153
REMARK   98  A    between atoms: CE_153  and  NZ_154
REMARK   99  A    between atoms: N_155  and  C_156
REMARK  100  A    between atoms: C_156  and  C_157
REMARK  101  A    between atoms: C_156  and  C_159
REMARK  102  A    between atoms: C_159  and  O_160
REMARK                            x       y       z     vdW  Elec       q    Type
REMARK                         _______ _______ _______ _____ _____    ______ ____
ROOT
ATOM      1  CA  GLN A  12     -12.129   8.213  -0.176  0.00  0.00    +0.159 C 
ENDROOT
BRANCH   1   4
ATOM      2  C   PRO A  11     -10.280   7.305  -1.535  0.00  0.00    +0.234 C 
ATOM      3  O   PRO A  11      -9.751   8.414  -1.610  0.00  0.00    -0.274 OA
ATOM      4  N   GLN A  12     -11.507   7.126  -0.929  0.00  0.00    -0.302 N 
ATOM      5  H   GLN A  12     -11.757   6.170  -0.688  0.00  0.00    +0.149 HD
BRANCH   2   9
ATOM      6  C   LEU A  10     -10.342   6.375  -4.548  0.00  0.00    +0.236 C 
ATOM      7  O   LEU A  10     -11.522   6.244  -4.192  0.00  0.00    -0.274 OA
ATOM      8  N   PRO A  11      -9.329   6.301  -3.615  0.00  0.00    -0.288 N 
ATOM      9  CA  PRO A  11      -9.654   6.067  -2.208  0.00  0.00    +0.162 C 
ATOM     10  CB  PRO A  11      -8.326   5.692  -1.551  0.00  0.00    +0.033 C 
ATOM     11  CG  PRO A  11      -7.281   6.324  -2.459  0.00  0.00    +0.021 C 
ATOM     12  CD  PRO A  11      -7.894   6.169  -3.840  0.00  0.00    +0.109 C 
BRANCH   6  13
ATOM     13  CA  LEU A  10     -10.010   6.624  -6.048  0.00  0.00    +0.159 C 
BRANCH  13  16
ATOM     14  C   PHE A   9      -9.314   5.068  -7.829  0.00  0.00    +0.234 C 
ATOM     15  O   PHE A   9      -8.260   5.692  -7.977  0.00  0.00    -0.274 OA
ATOM     16  N   LEU A  10     -10.235   5.438  -6.874  0.00  0.00    -0.302 N 
ATOM     17  H   LEU A  10     -11.179   5.052  -6.934  0.00  0.00    +0.149 HD
BRANCH  14  18
ATOM     18  CA  PHE A   9      -9.691   3.893  -8.748  0.00  0.00    +0.163 C 
BRANCH  18  21
ATOM     19  C   ASN A   8     -10.884   3.673 -10.916  0.00  0.00    +0.234 C 
ATOM     20  O   ASN A   8     -11.323   2.562 -10.618  0.00  0.00    -0.274 OA
ATOM     21  N   PHE A   9     -10.034   4.372 -10.088  0.00  0.00    -0.302 N 
ATOM     22  H   PHE A   9      -9.876   5.353 -10.313  0.00  0.00    +0.149 HD
BRANCH  19  23
ATOM     23  CA  ASN A   8     -11.160   4.318 -12.289  0.00  0.00    +0.168 C 
BRANCH  23  26
ATOM     24  C   ALA A   7     -10.663   6.644 -13.012  0.00  0.00    +0.234 C 
ATOM     25  O   ALA A   7     -11.850   6.937 -13.135  0.00  0.00    -0.274 OA
ATOM     26  N   ASN A   8     -10.230   5.411 -12.573  0.00  0.00    -0.302 N 
ATOM     27  H   ASN A   8      -9.229   5.263 -12.502  0.00  0.00    +0.149 HD
BRANCH  24  28
ATOM     28  CA  ALA A   7      -9.528   7.586 -13.457  0.00  0.00    +0.156 C 
ATOM     29  CB  ALA A   7      -9.625   8.830 -12.574  0.00  0.00    +0.037 C 
BRANCH  28  32
ATOM     30  C   ALA A   6      -9.449   6.987 -15.866  0.00  0.00    +0.234 C 
ATOM     31  O   ALA A   6      -9.616   5.785 -15.640  0.00  0.00    -0.274 OA
ATOM     32  N   ALA A   7      -9.625   7.947 -14.880  0.00  0.00    -0.303 N 
ATOM     33  H   ALA A   7      -9.234   8.858 -15.119  0.00  0.00    +0.149 HD
BRANCH  30  34
ATOM     34  CA  ALA A   6      -9.310   7.557 -17.295  0.00  0.00    +0.156 C 
ATOM     35  CB  ALA A   6      -8.004   8.326 -17.468  0.00  0.00    +0.037 C 
BRANCH  34  38
ATOM     36  C   LEU A   5     -11.075   8.174 -18.878  0.00  0.00    +0.234 C 
ATOM     37  O   LEU A   5     -10.861   7.153 -19.529  0.00  0.00    -0.274 OA
ATOM     38  N   ALA A   6     -10.432   8.411 -17.668  0.00  0.00    -0.303 N 
ATOM     39  H   ALA A   6     -10.408   9.372 -17.335  0.00  0.00    +0.149 HD
BRANCH  36  40
ATOM     40  CA  LEU A   5     -11.875   9.363 -19.459  0.00  0.00    +0.159 C 
BRANCH  40  43
ATOM     41  C   GLY A   4     -13.027  11.141 -18.185  0.00  0.00    +0.231 C 
ATOM     42  O   GLY A   4     -14.066  11.014 -18.825  0.00  0.00    -0.274 OA
ATOM     43  N   LEU A   5     -11.865  10.469 -18.500  0.00  0.00    -0.303 N 
ATOM     44  H   LEU A   5     -11.114  10.499 -17.824  0.00  0.00    +0.149 HD
BRANCH  41  45
ATOM     45  CA  GLY A   4     -12.923  12.123 -17.012  0.00  0.00    +0.200 C 
BRANCH  45  48
ATOM     46  C   SER A   3     -12.545  10.770 -14.979  0.00  0.00    +0.236 C 
ATOM     47  O   SER A   3     -11.440  10.401 -15.358  0.00  0.00    -0.274 OA
ATOM     48  N   GLY A   4     -13.368  11.575 -15.739  0.00  0.00    -0.305 N 
ATOM     49  H   GLY A   4     -14.147  12.020 -15.270  0.00  0.00    +0.149 HD
BRANCH  46  50
ATOM     50  CA  SER A   3     -13.157  10.284 -13.661  0.00  0.00    +0.184 C 
BRANCH  50  53
ATOM     51  C   ILE A   2     -12.863  11.896 -11.822  0.00  0.00    +0.234 C 
ATOM     52  O   ILE A   2     -11.712  11.498 -11.639  0.00  0.00    -0.274 OA
ATOM     53  N   SER A   3     -13.632  11.428 -12.872  0.00  0.00    -0.301 N 
ATOM     54  H   SER A   3     -14.638  11.426 -12.726  0.00  0.00    +0.150 HD
BRANCH  51  55
ATOM     55  CA  ILE A   2     -13.570  12.912 -10.890  0.00  0.00    +0.162 C 
BRANCH  55  58
ATOM     56  C   LEU A   1     -13.441  11.886  -8.654  0.00  0.00    +0.262 C 
ATOM     57  O   LEU A   1     -14.244  11.007  -8.968  0.00  0.00    -0.270 OA
ATOM     58  N   ILE A   2     -12.993  12.847  -9.533  0.00  0.00    -0.299 N 
ATOM     59  H   ILE A   2     -12.497  13.662  -9.190  0.00  0.00    +0.150 HD
BRANCH  56  60
ATOM     60  CA  LEU A   1     -12.823  11.871  -7.243  0.00  0.00    +0.148 C 
BRANCH  60  61
ATOM     61  N   LEU A   1     -11.412  12.379  -7.325  0.00  0.00    +0.227 N 
ATOM     62  H1  LEU A   1     -10.831  11.765  -7.912  0.00  0.00    +0.200 HD
ATOM     63  H2  LEU A   1     -10.943  12.478  -6.417  0.00  0.00    +0.200 HD
ATOM     64  H3  LEU A   1     -11.399  13.294  -7.805  0.00  0.00    +0.200 HD
ENDBRANCH  60  61
BRANCH  60  65
ATOM     65  CB  LEU A   1     -13.666  12.801  -6.359  0.00  0.00    +0.067 C 
BRANCH  65  66
ATOM     66  CG  LEU A   1     -13.739  12.442  -4.864  0.00  0.00    -0.011 C 
ATOM     67  CD2 LEU A   1     -13.418  13.683  -4.025  0.00  0.00    +0.007 C 
ATOM     68  CD1 LEU A   1     -15.110  11.891  -4.476  0.00  0.00    +0.007 C 
ENDBRANCH  65  66
ENDBRANCH  60  65
ENDBRANCH  56  60
ENDBRANCH  55  58
BRANCH  55  69
ATOM     69  CB  ILE A   2     -13.560  14.336 -11.501  0.00  0.00    +0.015 C 
ATOM     70  CG2 ILE A   2     -14.994  14.881 -11.571  0.00  0.00    +0.010 C 
BRANCH  69  71
ATOM     71  CG1 ILE A   2     -12.614  15.319 -10.776  0.00  0.00    +0.002 C 
ATOM     72  CD1 ILE A   2     -13.341  16.443 -10.048  0.00  0.00    +0.004 C 
ENDBRANCH  69  71
ENDBRANCH  55  69
ENDBRANCH  51  55
ENDBRANCH  50  53
BRANCH  50  73
ATOM     73  CB  SER A   3     -14.313   9.328 -13.958  0.00  0.00    +0.187 C 
BRANCH  73  74
ATOM     74  OG  SER A   3     -13.925   8.446 -15.018  0.00  0.00    -0.393 OA
ATOM     75  H   SER A   3     -14.742   8.016 -15.339  0.00  0.00    +0.209 HD
ENDBRANCH  73  74
ENDBRANCH  50  73
ENDBRANCH  46  50
ENDBRANCH  45  48
ENDBRANCH  41  45
ENDBRANCH  40  43
BRANCH  40  76
ATOM     76  CB  LEU A   5     -11.251   9.834 -20.784  0.00  0.00    +0.034 C 
BRANCH  76  77
ATOM     77  CG  LEU A   5     -12.004   9.410 -22.060  0.00  0.00    -0.015 C 
ATOM     78  CD2 LEU A   5     -11.251   8.344 -22.855  0.00  0.00    +0.007 C 
ATOM     79  CD1 LEU A   5     -13.397   8.893 -21.688  0.00  0.00    +0.007 C 
ENDBRANCH  76  77
ENDBRANCH  40  76
ENDBRANCH  36  40
ENDBRANCH  34  38
ENDBRANCH  30  34
ENDBRANCH  28  32
ENDBRANCH  24  28
ENDBRANCH  23  26
BRANCH  23  80
ATOM     80  CB  ASN A   8     -11.086   3.236 -13.369  0.00  0.00    +0.127 C 
BRANCH  80  81
ATOM     81  CG  ASN A   8      -9.653   2.944 -13.747  0.00  0.00    +0.213 C 
ATOM     82  OD1 ASN A   8      -8.769   2.675 -12.950  0.00  0.00    -0.276 OA
ATOM     83  ND2 ASN A   8      -9.393   3.027 -15.083  0.00  0.00    -0.329 N 
ATOM     84 HD21 ASN A   8     -10.081   3.259 -15.786  0.00  0.00    +0.145 HD
ATOM     85 HD22 ASN A   8      -8.443   2.849 -15.390  0.00  0.00    +0.145 HD
ENDBRANCH  80  81
ENDBRANCH  23  80
ENDBRANCH  19  23
ENDBRANCH  18  21
BRANCH  18  86
ATOM     86  CB  PHE A   9      -8.539   2.887  -8.767  0.00  0.00    +0.067 C 
BRANCH  86  87
ATOM     87  CG  PHE A   9      -8.736   1.774  -7.768  0.00  0.00    -0.045 A 
ATOM     88  CD2 PHE A   9      -9.670   0.757  -8.005  0.00  0.00    +0.003 A 
ATOM     89  CD1 PHE A   9      -8.011   1.765  -6.569  0.00  0.00    +0.003 A 
ATOM     90  CE2 PHE A   9      -9.869  -0.256  -7.067  0.00  0.00    +0.000 A 
ATOM     91  CE1 PHE A   9      -8.209   0.750  -5.631  0.00  0.00    +0.000 A 
ATOM     92  CZ  PHE A   9      -9.138  -0.260  -5.881  0.00  0.00    +0.000 A 
ENDBRANCH  86  87
ENDBRANCH  18  86
ENDBRANCH  14  18
ENDBRANCH  13  16
BRANCH  13  93
ATOM     93  CB  LEU A  10     -10.784   7.848  -6.553  0.00  0.00    +0.034 C 
BRANCH  93  94
ATOM     94  CG  LEU A  10      -9.905   9.018  -7.037  0.00  0.00    -0.015 C 
ATOM     95  CD2 LEU A  10      -8.599   9.040  -6.239  0.00  0.00    +0.007 C 
ATOM     96  CD1 LEU A  10      -9.586   8.943  -8.532  0.00  0.00    +0.007 C 
ENDBRANCH  93  94
ENDBRANCH  13  93
ENDBRANCH   6  13
ENDBRANCH   2   9
ENDBRANCH   1   4
BRANCH   1  97
ATOM     97  C   GLN A  12     -12.292   7.821   1.306  0.00  0.00    +0.234 C 
ATOM     98  O   GLN A  12     -12.297   8.663   2.203  0.00  0.00    -0.274 OA
ATOM     99  N   ILE A  13     -12.527   6.486   1.548  0.00  0.00    -0.302 N 
ATOM    100  H   ILE A  13     -12.669   5.857   0.756  0.00  0.00    +0.149 HD
BRANCH  99 101
ATOM    101  CA  ILE A  13     -12.628   5.964   2.910  0.00  0.00    +0.162 C 
BRANCH 101 102
ATOM    102  C   ILE A  13     -11.184   5.886   3.460  0.00  0.00    +0.234 C 
ATOM    103  O   ILE A  13     -10.439   4.939   3.196  0.00  0.00    -0.274 OA
ATOM    104  N   LEU A  14     -10.774   6.938   4.258  0.00  0.00    -0.302 N 
ATOM    105  H   LEU A  14     -11.315   7.805   4.206  0.00  0.00    +0.149 HD
BRANCH 104 106
ATOM    106  CA  LEU A  14      -9.391   6.989   4.743  0.00  0.00    +0.159 C 
BRANCH 106 107
ATOM    107  C   LEU A  14      -9.373   7.764   6.086  0.00  0.00    +0.234 C 
ATOM    108  O   LEU A  14      -8.542   7.556   6.967  0.00  0.00    -0.274 OA
ATOM    109  N   LYS A  15     -10.348   8.728   6.218  0.00  0.00    -0.302 N 
ATOM    110  H   LYS A  15     -10.950   8.905   5.412  0.00  0.00    +0.149 HD
BRANCH 109 111
ATOM    111  CA  LYS A  15     -10.441   9.631   7.372  0.00  0.00    +0.159 C 
BRANCH 111 112
ATOM    112  C   LYS A  15     -11.586   9.238   8.344  0.00  0.00    +0.234 C 
ATOM    113  O   LYS A  15     -11.864   8.061   8.580  0.00  0.00    -0.274 OA
ATOM    114  N   LYS A  16     -12.232  10.283   8.967  0.00  0.00    -0.302 N 
ATOM    115  H   LYS A  16     -11.936  11.228   8.736  0.00  0.00    +0.149 HD
BRANCH 114 116
ATOM    116  CA  LYS A  16     -13.439  10.099   9.758  0.00  0.00    +0.159 C 
BRANCH 116 117
ATOM    117  C   LYS A  16     -14.675  10.046   8.836  0.00  0.00    +0.234 C 
ATOM    118  O   LYS A  16     -15.263   8.981   8.635  0.00  0.00    -0.274 OA
ATOM    119  N   ILE A  17     -15.181  11.258   8.409  0.00  0.00    -0.302 N 
ATOM    120  H   ILE A  17     -14.624  12.101   8.537  0.00  0.00    +0.149 HD
BRANCH 119 121
ATOM    121  CA  ILE A  17     -16.371  11.300   7.554  0.00  0.00    +0.162 C 
BRANCH 121 122
ATOM    122  C   ILE A  17     -16.163  12.263   6.368  0.00  0.00    +0.234 C 
ATOM    123  O   ILE A  17     -15.838  13.436   6.551  0.00  0.00    -0.274 OA
ATOM    124  N   ALA A  18     -16.390  11.751   5.114  0.00  0.00    -0.303 N 
ATOM    125  H   ALA A  18     -16.624  10.763   5.006  0.00  0.00    +0.149 HD
BRANCH 124 126
ATOM    126  CA  ALA A  18     -16.358  12.572   3.897  0.00  0.00    +0.156 C 
ATOM    127  CB  ALA A  18     -15.818  11.774   2.717  0.00  0.00    +0.037 C 
BRANCH 126 128
ATOM    128  C   ALA A  18     -17.762  13.164   3.581  0.00  0.00    +0.234 C 
ATOM    129  O   ALA A  18     -18.268  13.186   2.462  0.00  0.00    -0.274 OA
ATOM    130  N   ARG A  19     -18.333  13.822   4.649  0.00  0.00    -0.302 N 
ATOM    131  H   ARG A  19     -17.964  13.644   5.573  0.00  0.00    +0.149 HD
BRANCH 130 132
ATOM    132  CA  ARG A  19     -19.332  14.874   4.527  0.00  0.00    +0.159 C 
BRANCH 132 133
ATOM    133  C   ARG A  19     -18.614  16.235   4.732  0.00  0.00    +0.234 C 
ATOM    134  O   ARG A  19     -18.954  17.270   4.162  0.00  0.00    -0.274 OA
ATOM    135  N   LYS A  20     -17.476  16.181   5.505  0.00  0.00    -0.302 N 
ATOM    136  H   LYS A  20     -17.278  15.363   6.082  0.00  0.00    +0.149 HD
BRANCH 135 137
ATOM    137  CA  LYS A  20     -16.559  17.307   5.609  0.00  0.00    +0.159 C 
BRANCH 137 138
ATOM    138  C   LYS A  20     -15.120  16.882   5.244  0.00  0.00    +0.234 C 
ATOM    139  O   LYS A  20     -14.891  15.849   4.611  0.00  0.00    -0.274 OA
ATOM    140  N   UNK A  21     -14.139  17.711   5.723  0.00  0.00    -0.304 N 
ATOM    141  H   UNK A  21     -14.427  18.312   6.490  0.00  0.00    +0.149 HD
BRANCH 140 142
ATOM    142  C   UNK A  21     -12.785  17.200   6.002  0.00  0.00    +0.144 C 
BRANCH 142 143
ATOM    143  C   UNK A  21     -12.751  16.559   7.421  0.00  0.00    +0.064 C 
ATOM    144  O   UNK A  21     -12.582  15.313   7.450  0.00  0.00    -0.548 OA
ATOM    145  O   UNK A  21     -13.035  17.382   8.349  0.00  0.00    -0.548 OA
ENDBRANCH 142 143
BRANCH 142 146
ATOM    146  C   UNK A  21     -11.785  18.357   6.034  0.00  0.00    +0.184 C 
BRANCH 146 147
ATOM    147  O   UNK A  21     -12.411  19.579   6.458  0.00  0.00    -0.393 OA
ATOM    148  H   UNK A  21     -12.833  19.336   7.322  0.00  0.00    +0.209 HD
ENDBRANCH 146 147
ENDBRANCH 142 146
ENDBRANCH 140 142
ENDBRANCH 137 138
BRANCH 137 149
ATOM    149  CB  LYS A  20     -16.631  17.951   7.004  0.00  0.00    +0.032 C 
BRANCH 149 150
ATOM    150  CG  LYS A  20     -16.730  16.913   8.136  0.00  0.00    +0.007 C 
BRANCH 150 151
ATOM    151  CD  LYS A  20     -17.472  17.427   9.382  0.00  0.00    +0.051 C 
BRANCH 151 152
ATOM    152  CE  LYS A  20     -16.658  17.259  10.665  0.00  0.00    +0.127 C 
BRANCH 152 153
ATOM    153  NZ  LYS A  20     -16.585  18.536  11.399  0.00  0.00    +0.218 N 
ATOM    154  HZ1 LYS A  20     -15.963  19.219  10.950  0.00  0.00    +0.199 HD
ATOM    155  HZ2 LYS A  20     -16.306  18.450  12.382  0.00  0.00    +0.199 HD
ATOM    156  HZ3 LYS A  20     -17.497  19.049  11.400  0.00  0.00    +0.199 HD
ENDBRANCH 152 153
ENDBRANCH 151 152
ENDBRANCH 150 151
ENDBRANCH 149 150
ENDBRANCH 137 149
ENDBRANCH 135 137
ENDBRANCH 132 133
BRANCH 132 157
ATOM    157  CB  ARG A  19     -20.466  14.646   5.533  0.00  0.00    +0.035 C 
BRANCH 157 158
ATOM    158  CG  ARG A  19     -20.613  15.779   6.555  0.00  0.00    +0.039 C 
BRANCH 158 159
ATOM    159  CD  ARG A  19     -20.253  15.330   7.965  0.00  0.00    +0.196 C 
BRANCH 159 160
ATOM    160  NE  ARG A  19     -20.425  13.882   8.123  0.00  0.00    -0.279 N 
ATOM    161  CZ  ARG A  19     -21.456  13.322   8.770  0.00  0.00    +0.341 C 
ATOM    162  NH1 ARG A  19     -22.326  14.047   9.478  0.00  0.00    -0.292 N 
ATOM    163  NH2 ARG A  19     -21.623  11.997   8.718  0.00  0.00    -0.292 N 
ATOM    164  HE  ARG A  19     -19.781  13.275   7.629  0.00  0.00    +0.258 HD
ATOM    165 HH11 ARG A  19     -22.237  15.054   9.536  0.00  0.00    +0.255 HD
ATOM    166 HH12 ARG A  19     -23.126  13.633   9.935  0.00  0.00    +0.255 HD
ATOM    167 HH21 ARG A  19     -21.046  11.425   8.114  0.00  0.00    +0.255 HD
ATOM    168 HH22 ARG A  19     -22.429  11.557   9.142  0.00  0.00    +0.255 HD
ENDBRANCH 159 160
ENDBRANCH 158 159
ENDBRANCH 157 158
ENDBRANCH 132 157
ENDBRANCH 130 132
ENDBRANCH 126 128
ENDBRANCH 124 126
ENDBRANCH 121 122
BRANCH 121 169
ATOM    169  CB  ILE A  17     -17.699  11.560   8.299  0.00  0.00    +0.015 C 
ATOM    170  CG2 ILE A  17     -18.561  10.289   8.282  0.00  0.00    +0.010 C 
BRANCH 169 171
ATOM    171  CG1 ILE A  17     -17.517  12.107   9.725  0.00  0.00    +0.002 C 
ATOM    172  CD1 ILE A  17     -17.396  13.624   9.788  0.00  0.00    +0.004 C 
ENDBRANCH 169 171
ENDBRANCH 121 169
ENDBRANCH 119 121
ENDBRANCH 116 117
BRANCH 116 173
ATOM    173  CB  LYS A  16     -13.589  11.221  10.797  0.00  0.00    +0.032 C 
BRANCH 173 174
ATOM    174  CG  LYS A  16     -12.246  11.728  11.344  0.00  0.00    +0.007 C 
BRANCH 174 175
ATOM    175  CD  LYS A  16     -12.048  11.306  12.804  0.00  0.00    +0.051 C 
BRANCH 175 176
ATOM    176  CE  LYS A  16     -10.702  10.639  13.072  0.00  0.00    +0.127 C 
BRANCH 176 177
ATOM    177  NZ  LYS A  16     -10.753   9.819  14.303  0.00  0.00    +0.218 N 
ATOM    178  HZ1 LYS A  16     -10.901  10.392  15.144  0.00  0.00    +0.199 HD
ATOM    179  HZ2 LYS A  16      -9.866   9.312  14.438  0.00  0.00    +0.199 HD
ATOM    180  HZ3 LYS A  16     -11.499   9.112  14.261  0.00  0.00    +0.199 HD
ENDBRANCH 176 177
ENDBRANCH 175 176
ENDBRANCH 174 175
ENDBRANCH 173 174
ENDBRANCH 116 173
ENDBRANCH 114 116
ENDBRANCH 111 112
BRANCH 111 181
ATOM    181  CB  LYS A  15     -10.629  11.060   6.843  0.00  0.00    +0.032 C 
BRANCH 181 182
ATOM    182  CG  LYS A  15     -10.167  11.332   5.410  0.00  0.00    +0.007 C 
BRANCH 182 183
ATOM    183  CD  LYS A  15     -11.288  12.049   4.643  0.00  0.00    +0.051 C 
BRANCH 183 184
ATOM    184  CE  LYS A  15     -12.470  12.397   5.534  0.00  0.00    +0.127 C 
BRANCH 184 185
ATOM    185  NZ  LYS A  15     -13.116  13.630   5.018  0.00  0.00    +0.218 N 
ATOM    186  HZ1 LYS A  15     -12.464  14.429   5.025  0.00  0.00    +0.199 HD
ATOM    187  HZ2 LYS A  15     -13.925  13.906   5.589  0.00  0.00    +0.199 HD
ATOM    188  HZ3 LYS A  15     -13.447  13.519   4.050  0.00  0.00    +0.199 HD
ENDBRANCH 184 185
ENDBRANCH 183 184
ENDBRANCH 182 183
ENDBRANCH 181 182
ENDBRANCH 111 181
ENDBRANCH 109 111
ENDBRANCH 106 107
BRANCH 106 189
ATOM    189  CB  LEU A  14      -8.482   7.657   3.707  0.00  0.00    +0.034 C 
BRANCH 189 190
ATOM    190  CG  LEU A  14      -7.071   7.047   3.584  0.00  0.00    -0.015 C 
ATOM    191  CD1 LEU A  14      -6.012   7.847   4.344  0.00  0.00    +0.007 C 
ATOM    192  CD2 LEU A  14      -7.091   5.603   4.095  0.00  0.00    +0.007 C 
ENDBRANCH 189 190
ENDBRANCH 106 189
ENDBRANCH 104 106
ENDBRANCH 101 102
BRANCH 101 193
ATOM    193  CB  ILE A  13     -13.362   4.604   2.949  0.00  0.00    +0.015 C 
ATOM    194  CG2 ILE A  13     -12.588   3.528   2.174  0.00  0.00    +0.010 C 
BRANCH 193 195
ATOM    195  CG1 ILE A  13     -13.570   4.162   4.417  0.00  0.00    +0.002 C 
ATOM    196  CD1 ILE A  13     -15.022   3.857   4.761  0.00  0.00    +0.004 C 
ENDBRANCH 193 195
ENDBRANCH 101 193
ENDBRANCH  99 101
ENDBRANCH   1  97
BRANCH   1 197
ATOM    197  CB  GLN A  12     -13.499   8.600  -0.730  0.00  0.00    +0.041 C 
BRANCH 197 198
ATOM    198  CG  GLN A  12     -13.404   9.369  -2.043  0.00  0.00    +0.098 C 
BRANCH 198 199
ATOM    199  CD  GLN A  12     -12.622  10.645  -1.836  0.00  0.00    +0.211 C 
ATOM    200  OE1 GLN A  12     -12.974  11.532  -1.066  0.00  0.00    -0.276 OA
ATOM    201  NE2 GLN A  12     -11.458  10.727  -2.536  0.00  0.00    -0.329 N 
ATOM    202 HE21 GLN A  12     -11.346  10.188  -3.397  0.00  0.00    +0.145 HD
ATOM    203 HE22 GLN A  12     -10.967  11.611  -2.495  0.00  0.00    +0.145 HD
ENDBRANCH 198 199
ENDBRANCH 197 198
ENDBRANCH   1 197
TORSDOF 85
ENDMDL
MODEL 2
REMARK minimizedAffinity -5.15922022
REMARK minimizedRMSD -1
REMARK  Name = crb16.pdb
REMARK  102 active torsions:
REMARK  status: ('A' for Active; 'I' for Inactive)
REMARK    1  A    between atoms: N_1  and  CA_2
REMARK    2  A    between atoms: CA_2  and  C_3
REMARK    3  A    between atoms: CA_2  and  CB_5
REMARK    4  A    between atoms: CB_5  and  CG_6
REMARK    5  A    between atoms: CG_6  and  CD2_7
REMARK    6  A    between atoms: CG_6  and  CD1_8
REMARK    7  A    between atoms: N_9  and  CA_10
REMARK    8  A    between atoms: CA_10  and  C_11
REMARK    9  A    between atoms: CA_10  and  CB_13
REMARK   10  A    between atoms: CB_13  and  CG1_14
REMARK   11  A    between atoms: CB_13  and  CG2_15
REMARK   12  A    between atoms: CG1_14  and  CD1_16
REMARK   13  A    between atoms: N_17  and  CA_18
REMARK   14  A    between atoms: CA_18  and  C_19
REMARK   15  A    between atoms: CA_18  and  CB_21
REMARK   16  A    between atoms: CB_21  and  OG_22
REMARK   17  A    between atoms: N_23  and  CA_24
REMARK   18  A    between atoms: CA_24  and  C_25
REMARK   19  A    between atoms: N_27  and  CA_28
REMARK   20  A    between atoms: CA_28  and  C_29
REMARK   21  A    between atoms: CA_28  and  CB_31
REMARK   22  A    between atoms: CB_31  and  CG_32
REMARK   23  A    between atoms: CG_32  and  CD2_33
REMARK   24  A    between atoms: CG_32  and  CD1_34
REMARK   25  A    between atoms: N_35  and  CA_36
REMARK   26  A    between atoms: CA_36  and  C_37
REMARK   27  A    between atoms: CA_36  and  CB_39
REMARK   28  A    between atoms: N_40  and  CA_41
REMARK   29  A    between atoms: CA_41  and  C_42
REMARK   30  A    between atoms: CA_41  and  CB_44
REMARK   31  A    between atoms: N_45  and  CA_46
REMARK   32  A    between atoms: CA_46  and  C_47
REMARK   33  A    between atoms: CA_46  and  CB_49
REMARK   34  A    between atoms: CB_49  and  CG_50
REMARK   35  A    between atoms: N_53  and  CA_54
REMARK   36  A    between atoms: CA_54  and  C_55
REMARK   37  A    between atoms: CA_54  and  CB_57
REMARK   38  A    between atoms: CB_57  and  CG_58
REMARK   39  A    between atoms: N_64  and  CA_65
REMARK   40  A    between atoms: CA_65  and  C_66
REMARK   41  A    between atoms: CA_65  and  CB_68
REMARK   42  A    between atoms: CB_68  and  CG_69
REMARK   43  A    between atoms: CG_69  and  CD2_70
REMARK   44  A    between atoms: CG_69  and  CD1_71
REMARK   45  A    between atoms: CA_73  and  C_74
REMARK   46  A    between atoms: N_79  and  CA_80
REMARK   47  A    between atoms: CA_80  and  C_81
REMARK   48  A    between atoms: CA_80  and  CB_83
REMARK   49  A    between atoms: CB_83  and  CG_84
REMARK   50  A    between atoms: CG_84  and  CD_85
REMARK   51  A    between atoms: N_88  and  CA_89
REMARK   52  A    between atoms: CA_89  and  C_90
REMARK   53  A    between atoms: CA_89  and  CB_92
REMARK   54  A    between atoms: CB_92  and  CG1_93
REMARK   55  A    between atoms: CB_92  and  CG2_94
REMARK   56  A    between atoms: CG1_93  and  CD1_95
REMARK   57  A    between atoms: N_96  and  CA_97
REMARK   58  A    between atoms: CA_97  and  C_98
REMARK   59  A    between atoms: CA_97  and  CB_100
REMARK   60  A    between atoms: CB_100  and  CG_101
REMARK   61  A    between atoms: CG_101  and  CD1_102
REMARK   62  A    between atoms: CG_101  and  CD2_103
REMARK   63  A    between atoms: N_104  and  CA_105
REMARK   64  A    between atoms: CA_105  and  C_106
REMARK   65  A    between atoms: CA_105  and  CB_108
REMARK   66  A    between atoms: CB_108  and  CG_109
REMARK   67  A    between atoms: CG_109  and  CD_110
REMARK   68  A    between atoms: CD_110  and  CE_111
REMARK   69  A    between atoms: CE_111  and  NZ_112
REMARK   70  A    between atoms: N_113  and  CA_114
REMARK   71  A    between atoms: CA_114  and  C_115
REMARK   72  A    between atoms: CA_114  and  CB_117
REMARK   73  A    between atoms: CB_117  and  CG_118
REMARK   74  A    between atoms: CG_118  and  CD_119
REMARK   75  A    between atoms: CD_119  and  CE_120
REMARK   76  A    between atoms: CE_120  and  NZ_121
REMARK   77  A    between atoms: N_122  and  CA_123
REMARK   78  A    between atoms: CA_123  and  C_124
REMARK   79  A    between atoms: CA_123  and  CB_126
REMARK   80  A    between atoms: CB_126  and  CG1_127
REMARK   81  A    between atoms: CB_126  and  CG2_128
REMARK   82  A    between atoms: CG1_127  and  CD1_129
REMARK   83  A    between atoms: N_130  and  CA_131
REMARK   84  A    between atoms: CA_131  and  C_132
REMARK   85  A    between atoms: CA_131  and  CB_134
REMARK   86  A    between atoms: N_135  and  CA_136
REMARK   87  A    between atoms: CA_136  and  C_137
REMARK   88  A    between atoms: CA_136  and  CB_139
REMARK   89  A    between atoms: CB_139  and  CG_140
REMARK   90  A    between atoms: CG_140  and  CD_141
REMARK   91  A    between atoms: CD_141  and  NE_142
REMARK   92  A    between atoms: N_146  and  CA_147
REMARK   93  A    between atoms: CA_147  and  C_148
REMARK   94  A    between atoms: CA_147  and  CB_150
REMARK   95  A    between atoms: CB_150  and  CG_151
REMARK   96  A    between atoms: CG_151  and  CD_152
REMARK   97  A    between atoms: CD_152  and  CE_153
REMARK   98  A    between atoms: CE_153  and  NZ_154
REMARK   99  A    between atoms: N_155  and  C_156
REMARK  100  A    between atoms: C_156  and  C_157
REMARK  101  A    between atoms: C_156  and  C_159
REMARK  102  A    between atoms: C_159  and  O_160
REMARK                            x       y       z     vdW  Elec       q    Type
REMARK                         _______ _______ _______ _____ _____    ______ ____
ROOT
ATOM      1  CA  GLN A  12     -12.189   8.361  -0.047  0.00  0.00    +0.159 C 
ENDROOT
BRANCH   1   4
ATOM      2  C   PRO A  11     -10.554   7.500  -1.684  0.00  0.00    +0.234 C 
ATOM      3  O   PRO A  11     -10.410   8.620  -2.174  0.00  0.00    -0.274 OA
ATOM      4  N   GLN A  12     -11.483   7.257  -0.693  0.00  0.00    -0.302 N 
ATOM      5  H   GLN A  12     -11.373   6.389  -0.173  0.00  0.00    +0.149 HD
BRANCH   2   9
ATOM      6  C   LEU A  10     -10.310   6.379  -4.621  0.00  0.00    +0.236 C 
ATOM      7  O   LEU A  10     -11.500   6.171  -4.342  0.00  0.00    -0.274 OA
ATOM      8  N   PRO A  11      -9.369   6.451  -3.616  0.00  0.00    -0.288 N 
ATOM      9  CA  PRO A  11      -9.781   6.280  -2.223  0.00  0.00    +0.162 C 
ATOM     10  CB  PRO A  11      -8.482   6.062  -1.448  0.00  0.00    +0.033 C 
ATOM     11  CG  PRO A  11      -7.424   6.722  -2.322  0.00  0.00    +0.021 C 
ATOM     12  CD  PRO A  11      -7.915   6.428  -3.728  0.00  0.00    +0.109 C 
BRANCH   6  13
ATOM     13  CA  LEU A  10      -9.885   6.560  -6.107  0.00  0.00    +0.159 C 
BRANCH  13  16
ATOM     14  C   PHE A   9      -9.237   4.873  -7.785  0.00  0.00    +0.234 C 
ATOM     15  O   PHE A   9      -8.108   5.365  -7.858  0.00  0.00    -0.274 OA
ATOM     16  N   LEU A  10     -10.182   5.381  -6.920  0.00  0.00    -0.302 N 
ATOM     17  H   LEU A  10     -11.157   5.106  -7.051  0.00  0.00    +0.149 HD
BRANCH  14  18
ATOM     18  CA  PHE A   9      -9.676   3.720  -8.704  0.00  0.00    +0.163 C 
BRANCH  18  21
ATOM     19  C   ASN A   8     -10.852   3.509 -10.881  0.00  0.00    +0.234 C 
ATOM     20  O   ASN A   8     -11.239   2.370 -10.618  0.00  0.00    -0.274 OA
ATOM     21  N   PHE A   9     -10.038   4.222 -10.030  0.00  0.00    -0.302 N 
ATOM     22  H   PHE A   9      -9.927   5.216 -10.225  0.00  0.00    +0.149 HD
BRANCH  19  23
ATOM     23  CA  ASN A   8     -11.155   4.182 -12.235  0.00  0.00    +0.168 C 
BRANCH  23  26
ATOM     24  C   ALA A   7     -10.620   6.505 -12.940  0.00  0.00    +0.234 C 
ATOM     25  O   ALA A   7     -11.801   6.832 -13.016  0.00  0.00    -0.274 OA
ATOM     26  N   ASN A   8     -10.207   5.253 -12.535  0.00  0.00    -0.302 N 
ATOM     27  H   ASN A   8      -9.208   5.077 -12.501  0.00  0.00    +0.149 HD
BRANCH  24  28
ATOM     28  CA  ALA A   7      -9.475   7.423 -13.409  0.00  0.00    +0.156 C 
ATOM     29  CB  ALA A   7      -9.625   8.734 -12.637  0.00  0.00    +0.037 C 
BRANCH  28  32
ATOM     30  C   ALA A   6      -8.807   6.845 -15.731  0.00  0.00    +0.234 C 
ATOM     31  O   ALA A   6      -8.480   5.695 -15.421  0.00  0.00    -0.274 OA
ATOM     32  N   ALA A   7      -9.511   7.664 -14.860  0.00  0.00    -0.303 N 
ATOM     33  H   ALA A   7      -9.512   8.648 -15.131  0.00  0.00    +0.149 HD
BRANCH  30  34
ATOM     34  CA  ALA A   6      -8.718   7.377 -17.178  0.00  0.00    +0.156 C 
ATOM     35  CB  ALA A   6      -7.407   8.116 -17.427  0.00  0.00    +0.037 C 
BRANCH  34  38
ATOM     36  C   LEU A   5     -10.731   7.819 -18.503  0.00  0.00    +0.234 C 
ATOM     37  O   LEU A   5     -10.718   6.664 -18.926  0.00  0.00    -0.274 OA
ATOM     38  N   ALA A   6      -9.840   8.243 -17.524  0.00  0.00    -0.303 N 
ATOM     39  H   ALA A   6      -9.689   9.246 -17.436  0.00  0.00    +0.149 HD
BRANCH  36  40
ATOM     40  CA  LEU A   5     -11.560   8.931 -19.186  0.00  0.00    +0.159 C 
BRANCH  40  43
ATOM     41  C   GLY A   4     -12.799  10.803 -18.151  0.00  0.00    +0.231 C 
ATOM     42  O   GLY A   4     -13.774  10.644 -18.879  0.00  0.00    -0.274 OA
ATOM     43  N   LEU A   5     -11.624  10.099 -18.306  0.00  0.00    -0.303 N 
ATOM     44  H   LEU A   5     -10.941  10.166 -17.564  0.00  0.00    +0.149 HD
BRANCH  41  45
ATOM     45  CA  GLY A   4     -12.792  11.859 -17.040  0.00  0.00    +0.200 C 
BRANCH  45  48
ATOM     46  C   SER A   3     -12.530  10.515 -14.983  0.00  0.00    +0.236 C 
ATOM     47  O   SER A   3     -11.462  10.044 -15.356  0.00  0.00    -0.274 OA
ATOM     48  N   GLY A   4     -13.281  11.375 -15.757  0.00  0.00    -0.305 N 
ATOM     49  H   GLY A   4     -14.018  11.894 -15.296  0.00  0.00    +0.149 HD
BRANCH  46  50
ATOM     50  CA  SER A   3     -13.180  10.107 -13.657  0.00  0.00    +0.184 C 
BRANCH  50  53
ATOM     51  C   ILE A   2     -12.953  11.841 -11.923  0.00  0.00    +0.234 C 
ATOM     52  O   ILE A   2     -11.803  11.473 -11.685  0.00  0.00    -0.274 OA
ATOM     53  N   SER A   3     -13.689  11.294 -12.958  0.00  0.00    -0.301 N 
ATOM     54  H   SER A   3     -14.699  11.288 -12.837  0.00  0.00    +0.150 HD
BRANCH  51  55
ATOM     55  CA  ILE A   2     -13.697  12.907 -11.078  0.00  0.00    +0.162 C 
BRANCH  55  58
ATOM     56  C   LEU A   1     -13.438  12.024  -8.792  0.00  0.00    +0.262 C 
ATOM     57  O   LEU A   1     -14.130  11.039  -9.053  0.00  0.00    -0.270 OA
ATOM     58  N   ILE A   2     -13.112  12.984  -9.725  0.00  0.00    -0.299 N 
ATOM     59  H   ILE A   2     -12.717  13.870  -9.430  0.00  0.00    +0.150 HD
BRANCH  56  60
ATOM     60  CA  LEU A   1     -12.819  12.158  -7.388  0.00  0.00    +0.148 C 
BRANCH  60  61
ATOM     61  N   LEU A   1     -11.991  13.410  -7.340  0.00  0.00    +0.227 N 
ATOM     62  H1  LEU A   1     -11.210  13.364  -8.008  0.00  0.00    +0.200 HD
ATOM     63  H2  LEU A   1     -11.599  13.625  -6.416  0.00  0.00    +0.200 HD
ATOM     64  H3  LEU A   1     -12.559  14.216  -7.653  0.00  0.00    +0.200 HD
ENDBRANCH  60  61
BRANCH  60  65
ATOM     65  CB  LEU A   1     -13.974  12.253  -6.380  0.00  0.00    +0.067 C 
BRANCH  65  66
ATOM     66  CG  LEU A   1     -13.660  11.815  -4.939  0.00  0.00    -0.011 C 
ATOM     67  CD2 LEU A   1     -14.954  11.795  -4.119  0.00  0.00    +0.007 C 
ATOM     68  CD1 LEU A   1     -12.993  10.443  -4.892  0.00  0.00    +0.007 C 
ENDBRANCH  65  66
ENDBRANCH  60  65
ENDBRANCH  56  60
ENDBRANCH  55  58
BRANCH  55  69
ATOM     69  CB  ILE A   2     -13.745  14.271 -11.812  0.00  0.00    +0.015 C 
ATOM     70  CG2 ILE A   2     -14.321  15.343 -10.875  0.00  0.00    +0.010 C 
BRANCH  69  71
ATOM     71  CG1 ILE A   2     -12.389  14.707 -12.408  0.00  0.00    +0.002 C 
ATOM     72  CD1 ILE A   2     -11.639  15.719 -11.550  0.00  0.00    +0.004 C 
ENDBRANCH  69  71
ENDBRANCH  55  69
ENDBRANCH  51  55
ENDBRANCH  50  53
BRANCH  50  73
ATOM     73  CB  SER A   3     -14.318   9.123 -13.928  0.00  0.00    +0.187 C 
BRANCH  73  74
ATOM     74  OG  SER A   3     -14.069   8.458 -15.173  0.00  0.00    -0.393 OA
ATOM     75  H   SER A   3     -14.905   8.021 -15.429  0.00  0.00    +0.209 HD
ENDBRANCH  73  74
ENDBRANCH  50  73
ENDBRANCH  46  50
ENDBRANCH  45  48
ENDBRANCH  41  45
ENDBRANCH  40  43
BRANCH  40  76
ATOM     76  CB  LEU A   5     -10.915   9.338 -20.523  0.00  0.00    +0.034 C 
BRANCH  76  77
ATOM     77  CG  LEU A   5     -11.287   8.460 -21.734  0.00  0.00    -0.015 C 
ATOM     78  CD2 LEU A   5     -12.126   9.215 -22.765  0.00  0.00    +0.007 C 
ATOM     79  CD1 LEU A   5     -10.013   7.924 -22.393  0.00  0.00    +0.007 C 
ENDBRANCH  76  77
ENDBRANCH  40  76
ENDBRANCH  36  40
ENDBRANCH  34  38
ENDBRANCH  30  34
ENDBRANCH  28  32
ENDBRANCH  24  28
ENDBRANCH  23  26
BRANCH  23  80
ATOM     80  CB  ASN A   8     -11.147   3.115 -13.332  0.00  0.00    +0.127 C 
BRANCH  80  81
ATOM     81  CG  ASN A   8      -9.744   2.862 -13.832  0.00  0.00    +0.213 C 
ATOM     82  OD1 ASN A   8      -8.810   2.519 -13.127  0.00  0.00    -0.276 OA
ATOM     83  ND2 ASN A   8      -9.575   3.075 -15.169  0.00  0.00    -0.329 N 
ATOM     84 HD21 ASN A   8     -10.308   3.372 -15.798  0.00  0.00    +0.145 HD
ATOM     85 HD22 ASN A   8      -8.649   2.928 -15.556  0.00  0.00    +0.145 HD
ENDBRANCH  80  81
ENDBRANCH  23  80
ENDBRANCH  19  23
ENDBRANCH  18  21
BRANCH  18  86
ATOM     86  CB  PHE A   9      -8.558   2.678  -8.762  0.00  0.00    +0.067 C 
BRANCH  86  87
ATOM     87  CG  PHE A   9      -8.743   1.583  -7.740  0.00  0.00    -0.045 A 
ATOM     88  CD2 PHE A   9      -9.680   0.562  -7.949  0.00  0.00    +0.003 A 
ATOM     89  CD1 PHE A   9      -8.003   1.595  -6.550  0.00  0.00    +0.003 A 
ATOM     90  CE2 PHE A   9      -9.868  -0.433  -6.990  0.00  0.00    +0.000 A 
ATOM     91  CE1 PHE A   9      -8.191   0.597  -5.593  0.00  0.00    +0.000 A 
ATOM     92  CZ  PHE A   9      -9.123  -0.416  -5.813  0.00  0.00    +0.000 A 
ENDBRANCH  86  87
ENDBRANCH  18  86
ENDBRANCH  14  18
ENDBRANCH  13  16
BRANCH  13  93
ATOM     93  CB  LEU A  10     -10.515   7.839  -6.674  0.00  0.00    +0.034 C 
BRANCH  93  94
ATOM     94  CG  LEU A  10      -9.531   9.006  -6.891  0.00  0.00    -0.015 C 
ATOM     95  CD2 LEU A  10     -10.028   9.886  -8.040  0.00  0.00    +0.007 C 
ATOM     96  CD1 LEU A  10      -9.341   9.864  -5.638  0.00  0.00    +0.007 C 
ENDBRANCH  93  94
ENDBRANCH  13  93
ENDBRANCH   6  13
ENDBRANCH   2   9
ENDBRANCH   1   4
BRANCH   1  97
ATOM     97  C   GLN A  12     -12.236   8.155   1.480  0.00  0.00    +0.234 C 
ATOM     98  O   GLN A  12     -12.608   9.045   2.244  0.00  0.00    -0.274 OA
ATOM     99  N   ILE A  13     -11.928   6.888   1.921  0.00  0.00    -0.302 N 
ATOM    100  H   ILE A  13     -11.779   6.148   1.234  0.00  0.00    +0.149 HD
BRANCH  99 101
ATOM    101  CA  ILE A  13     -11.862   6.572   3.347  0.00  0.00    +0.162 C 
BRANCH 101 102
ATOM    102  C   ILE A  13     -10.474   7.043   3.839  0.00  0.00    +0.234 C 
ATOM    103  O   ILE A  13      -9.457   6.367   3.660  0.00  0.00    -0.274 OA
ATOM    104  N   LEU A  14     -10.434   8.264   4.485  0.00  0.00    -0.302 N 
ATOM    105  H   LEU A  14     -11.232   8.892   4.352  0.00  0.00    +0.149 HD
BRANCH 104 106
ATOM    106  CA  LEU A  14      -9.146   8.828   4.900  0.00  0.00    +0.159 C 
BRANCH 106 107
ATOM    107  C   LEU A  14      -9.411   9.907   5.982  0.00  0.00    +0.234 C 
ATOM    108  O   LEU A  14      -8.526  10.360   6.706  0.00  0.00    -0.274 OA
ATOM    109  N   LYS A  15     -10.714  10.344   6.066  0.00  0.00    -0.302 N 
ATOM    110  H   LYS A  15     -11.377   9.987   5.377  0.00  0.00    +0.149 HD
BRANCH 109 111
ATOM    111  CA  LYS A  15     -11.148  11.424   6.960  0.00  0.00    +0.159 C 
BRANCH 111 112
ATOM    112  C   LYS A  15     -11.715  10.893   8.305  0.00  0.00    +0.234 C 
ATOM    113  O   LYS A  15     -12.079   9.724   8.441  0.00  0.00    -0.274 OA
ATOM    114  N   LYS A  16     -11.732  11.793   9.348  0.00  0.00    -0.302 N 
ATOM    115  H   LYS A  16     -11.399  12.736   9.165  0.00  0.00    +0.149 HD
BRANCH 114 116
ATOM    116  CA  LYS A  16     -12.398  11.516  10.611  0.00  0.00    +0.159 C 
BRANCH 116 117
ATOM    117  C   LYS A  16     -13.913  11.780  10.483  0.00  0.00    +0.234 C 
ATOM    118  O   LYS A  16     -14.698  10.850  10.287  0.00  0.00    -0.274 OA
ATOM    119  N   ILE A  17     -14.344  13.059  10.779  0.00  0.00    -0.302 N 
ATOM    120  H   ILE A  17     -13.658  13.807  10.862  0.00  0.00    +0.149 HD
BRANCH 119 121
ATOM    121  CA  ILE A  17     -15.771  13.389  10.711  0.00  0.00    +0.162 C 
BRANCH 121 122
ATOM    122  C   ILE A  17     -16.397  12.857   9.406  0.00  0.00    +0.234 C 
ATOM    123  O   ILE A  17     -16.090  13.333   8.313  0.00  0.00    -0.274 OA
ATOM    124  N   ALA A  18     -17.329  11.856   9.537  0.00  0.00    -0.303 N 
ATOM    125  H   ALA A  18     -17.527  11.466  10.459  0.00  0.00    +0.149 HD
BRANCH 124 126
ATOM    126  CA  ALA A  18     -18.105  11.333   8.404  0.00  0.00    +0.156 C 
ATOM    127  CB  ALA A  18     -17.979   9.818   8.313  0.00  0.00    +0.037 C 
BRANCH 126 128
ATOM    128  C   ALA A  18     -19.595  11.770   8.495  0.00  0.00    +0.234 C 
ATOM    129  O   ALA A  18     -20.540  11.093   8.098  0.00  0.00    -0.274 OA
ATOM    130  N   ARG A  19     -19.760  13.073   8.915  0.00  0.00    -0.302 N 
ATOM    131  H   ARG A  19     -18.985  13.529   9.374  0.00  0.00    +0.149 HD
BRANCH 130 132
ATOM    132  CA  ARG A  19     -20.923  13.893   8.607  0.00  0.00    +0.159 C 
BRANCH 132 133
ATOM    133  C   ARG A  19     -20.685  14.553   7.223  0.00  0.00    +0.234 C 
ATOM    134  O   ARG A  19     -21.544  14.608   6.345  0.00  0.00    -0.274 OA
ATOM    135  N   LYS A  20     -19.391  14.963   6.990  0.00  0.00    -0.302 N 
ATOM    136  H   LYS A  20     -18.725  15.042   7.758  0.00  0.00    +0.149 HD
BRANCH 135 137
ATOM    137  CA  LYS A  20     -18.941  15.387   5.671  0.00  0.00    +0.159 C 
BRANCH 137 138
ATOM    138  C   LYS A  20     -17.719  14.561   5.214  0.00  0.00    +0.234 C 
ATOM    139  O   LYS A  20     -16.573  15.011   5.274  0.00  0.00    -0.274 OA
ATOM    140  N   UNK A  21     -18.022  13.328   4.696  0.00  0.00    -0.304 N 
ATOM    141  H   UNK A  21     -18.987  13.218   4.395  0.00  0.00    +0.149 HD
BRANCH 140 142
ATOM    142  C   UNK A  21     -17.139  12.682   3.709  0.00  0.00    +0.144 C 
BRANCH 142 143
ATOM    143  C   UNK A  21     -15.881  12.114   4.427  0.00  0.00    +0.064 C 
ATOM    144  O   UNK A  21     -16.093  11.561   5.537  0.00  0.00    -0.548 OA
ATOM    145  O   UNK A  21     -14.791  12.412   3.841  0.00  0.00    -0.548 OA
ENDBRANCH 142 143
BRANCH 142 146
ATOM    146  C   UNK A  21     -16.626  13.720   2.708  0.00  0.00    +0.184 C 
BRANCH 146 147
ATOM    147  O   UNK A  21     -16.171  13.098   1.495  0.00  0.00    -0.393 OA
ATOM    148  H   UNK A  21     -16.950  12.554   1.208  0.00  0.00    +0.209 HD
ENDBRANCH 146 147
ENDBRANCH 142 146
ENDBRANCH 140 142
ENDBRANCH 137 138
BRANCH 137 149
ATOM    149  CB  LYS A  20     -18.655  16.898   5.644  0.00  0.00    +0.032 C 
BRANCH 149 150
ATOM    150  CG  LYS A  20     -18.520  17.505   7.051  0.00  0.00    +0.007 C 
BRANCH 150 151
ATOM    151  CD  LYS A  20     -17.089  17.959   7.392  0.00  0.00    +0.051 C 
BRANCH 151 152
ATOM    152  CE  LYS A  20     -17.060  19.106   8.402  0.00  0.00    +0.127 C 
BRANCH 152 153
ATOM    153  NZ  LYS A  20     -15.881  18.987   9.281  0.00  0.00    +0.218 N 
ATOM    154  HZ1 LYS A  20     -15.967  18.225   9.964  0.00  0.00    +0.199 HD
ATOM    155  HZ2 LYS A  20     -15.636  19.844   9.789  0.00  0.00    +0.199 HD
ATOM    156  HZ3 LYS A  20     -15.020  18.704   8.757  0.00  0.00    +0.199 HD
ENDBRANCH 152 153
ENDBRANCH 151 152
ENDBRANCH 150 151
ENDBRANCH 149 150
ENDBRANCH 137 149
ENDBRANCH 135 137
ENDBRANCH 132 133
BRANCH 132 157
ATOM    157  CB  ARG A  19     -21.154  14.922   9.721  0.00  0.00    +0.035 C 
BRANCH 157 158
ATOM    158  CG  ARG A  19     -22.632  15.269   9.934  0.00  0.00    +0.039 C 
BRANCH 158 159
ATOM    159  CD  ARG A  19     -23.024  15.228  11.404  0.00  0.00    +0.196 C 
BRANCH 159 160
ATOM    160  NE  ARG A  19     -22.199  16.140  12.203  0.00  0.00    -0.279 N 
ATOM    161  CZ  ARG A  19     -22.153  16.123  13.541  0.00  0.00    +0.341 C 
ATOM    162  NH1 ARG A  19     -22.995  15.383  14.269  0.00  0.00    -0.292 N 
ATOM    163  NH2 ARG A  19     -21.248  16.872  14.178  0.00  0.00    -0.292 N 
ATOM    164  HE  ARG A  19     -21.554  16.746  11.708  0.00  0.00    +0.258 HD
ATOM    165 HH11 ARG A  19     -23.690  14.797  13.824  0.00  0.00    +0.255 HD
ATOM    166 HH12 ARG A  19     -22.939  15.338  15.277  0.00  0.00    +0.255 HD
ATOM    167 HH21 ARG A  19     -20.531  17.368  13.663  0.00  0.00    +0.255 HD
ATOM    168 HH22 ARG A  19     -21.149  16.826  15.184  0.00  0.00    +0.255 HD
ENDBRANCH 159 160
ENDBRANCH 158 159
ENDBRANCH 157 158
ENDBRANCH 132 157
ENDBRANCH 130 132
ENDBRANCH 126 128
ENDBRANCH 124 126
ENDBRANCH 121 122
BRANCH 121 169
ATOM    169  CB  ILE A  17     -16.107  14.876  10.963  0.00  0.00    +0.015 C 
ATOM    170  CG2 ILE A  17     -14.905  15.751  10.585  0.00  0.00    +0.010 C 
BRANCH 169 171
ATOM    171  CG1 ILE A  17     -17.397  15.349  10.270  0.00  0.00    +0.002 C 
ATOM    172  CD1 ILE A  17     -18.056  16.541  10.952  0.00  0.00    +0.004 C 
ENDBRANCH 169 171
ENDBRANCH 121 169
ENDBRANCH 119 121
ENDBRANCH 116 117
BRANCH 116 173
ATOM    173  CB  LYS A  16     -11.796  12.362  11.744  0.00  0.00    +0.032 C 
BRANCH 173 174
ATOM    174  CG  LYS A  16     -11.656  11.596  13.068  0.00  0.00    +0.007 C 
BRANCH 174 175
ATOM    175  CD  LYS A  16     -11.922  10.099  12.873  0.00  0.00    +0.051 C 
BRANCH 175 176
ATOM    176  CE  LYS A  16     -10.734   9.213  13.235  0.00  0.00    +0.127 C 
BRANCH 176 177
ATOM    177  NZ  LYS A  16     -10.931   8.577  14.558  0.00  0.00    +0.218 N 
ATOM    178  HZ1 LYS A  16     -10.948   9.266  15.320  0.00  0.00    +0.199 HD
ATOM    179  HZ2 LYS A  16     -10.162   7.923  14.763  0.00  0.00    +0.199 HD
ATOM    180  HZ3 LYS A  16     -11.803   8.034  14.594  0.00  0.00    +0.199 HD
ENDBRANCH 176 177
ENDBRANCH 175 176
ENDBRANCH 174 175
ENDBRANCH 173 174
ENDBRANCH 116 173
ENDBRANCH 114 116
ENDBRANCH 111 112
BRANCH 111 181
ATOM    181  CB  LYS A  15     -12.191  12.268   6.213  0.00  0.00    +0.032 C 
BRANCH 181 182
ATOM    182  CG  LYS A  15     -11.957  13.780   6.175  0.00  0.00    +0.007 C 
BRANCH 182 183
ATOM    183  CD  LYS A  15     -12.825  14.453   7.249  0.00  0.00    +0.051 C 
BRANCH 183 184
ATOM    184  CE  LYS A  15     -11.996  15.202   8.280  0.00  0.00    +0.127 C 
BRANCH 184 185
ATOM    185  NZ  LYS A  15     -10.556  14.985   7.990  0.00  0.00    +0.218 N 
ATOM    186  HZ1 LYS A  15     -10.306  13.986   8.043  0.00  0.00    +0.199 HD
ATOM    187  HZ2 LYS A  15      -9.952  15.475   8.663  0.00  0.00    +0.199 HD
ATOM    188  HZ3 LYS A  15     -10.295  15.312   7.049  0.00  0.00    +0.199 HD
ENDBRANCH 184 185
ENDBRANCH 183 184
ENDBRANCH 182 183
ENDBRANCH 181 182
ENDBRANCH 111 181
ENDBRANCH 109 111
ENDBRANCH 106 107
BRANCH 106 189
ATOM    189  CB  LEU A  14      -8.406   9.423   3.697  0.00  0.00    +0.034 C 
BRANCH 189 190
ATOM    190  CG  LEU A  14      -9.296  10.181   2.692  0.00  0.00    -0.015 C 
ATOM    191  CD1 LEU A  14      -9.152  11.699   2.803  0.00  0.00    +0.007 C 
ATOM    192  CD2 LEU A  14      -8.955   9.733   1.267  0.00  0.00    +0.007 C 
ENDBRANCH 189 190
ENDBRANCH 106 189
ENDBRANCH 104 106
ENDBRANCH 101 102
BRANCH 101 193
ATOM    193  CB  ILE A  13     -12.118   5.070   3.613  0.00  0.00    +0.015 C 
ATOM    194  CG2 ILE A  13     -12.087   4.755   5.115  0.00  0.00    +0.010 C 
BRANCH 193 195
ATOM    195  CG1 ILE A  13     -13.480   4.655   3.007  0.00  0.00    +0.002 C 
ATOM    196  CD1 ILE A  13     -14.465   4.113   4.034  0.00  0.00    +0.004 C 
ENDBRANCH 193 195
ENDBRANCH 101 193
ENDBRANCH  99 101
ENDBRANCH   1  97
BRANCH   1 197
ATOM    197  CB  GLN A  12     -13.618   8.523  -0.559  0.00  0.00    +0.041 C 
BRANCH 197 198
ATOM    198  CG  GLN A  12     -13.904   9.935  -1.060  0.00  0.00    +0.098 C 
BRANCH 198 199
ATOM    199  CD  GLN A  12     -14.322  10.815   0.096  0.00  0.00    +0.211 C 
ATOM    200  OE1 GLN A  12     -15.352  10.637   0.737  0.00  0.00    -0.276 OA
ATOM    201  NE2 GLN A  12     -13.445  11.805   0.412  0.00  0.00    -0.329 N 
ATOM    202 HE21 GLN A  12     -12.803  12.159  -0.299  0.00  0.00    +0.145 HD
ATOM    203 HE22 GLN A  12     -13.747  12.469   1.114  0.00  0.00    +0.145 HD
ENDBRANCH 198 199
ENDBRANCH 197 198
ENDBRANCH   1 197
TORSDOF 85
ENDMDL
MODEL 3
REMARK minimizedAffinity -5.11752176
REMARK minimizedRMSD -1
REMARK  Name = crb16.pdb
REMARK  102 active torsions:
REMARK  status: ('A' for Active; 'I' for Inactive)
REMARK    1  A    between atoms: N_1  and  CA_2
REMARK    2  A    between atoms: CA_2  and  C_3
REMARK    3  A    between atoms: CA_2  and  CB_5
REMARK    4  A    between atoms: CB_5  and  CG_6
REMARK    5  A    between atoms: CG_6  and  CD2_7
REMARK    6  A    between atoms: CG_6  and  CD1_8
REMARK    7  A    between atoms: N_9  and  CA_10
REMARK    8  A    between atoms: CA_10  and  C_11
REMARK    9  A    between atoms: CA_10  and  CB_13
REMARK   10  A    between atoms: CB_13  and  CG1_14
REMARK   11  A    between atoms: CB_13  and  CG2_15
REMARK   12  A    between atoms: CG1_14  and  CD1_16
REMARK   13  A    between atoms: N_17  and  CA_18
REMARK   14  A    between atoms: CA_18  and  C_19
REMARK   15  A    between atoms: CA_18  and  CB_21
REMARK   16  A    between atoms: CB_21  and  OG_22
REMARK   17  A    between atoms: N_23  and  CA_24
REMARK   18  A    between atoms: CA_24  and  C_25
REMARK   19  A    between atoms: N_27  and  CA_28
REMARK   20  A    between atoms: CA_28  and  C_29
REMARK   21  A    between atoms: CA_28  and  CB_31
REMARK   22  A    between atoms: CB_31  and  CG_32
REMARK   23  A    between atoms: CG_32  and  CD2_33
REMARK   24  A    between atoms: CG_32  and  CD1_34
REMARK   25  A    between atoms: N_35  and  CA_36
REMARK   26  A    between atoms: CA_36  and  C_37
REMARK   27  A    between atoms: CA_36  and  CB_39
REMARK   28  A    between atoms: N_40  and  CA_41
REMARK   29  A    between atoms: CA_41  and  C_42
REMARK   30  A    between atoms: CA_41  and  CB_44
REMARK   31  A    between atoms: N_45  and  CA_46
REMARK   32  A    between atoms: CA_46  and  C_47
REMARK   33  A    between atoms: CA_46  and  CB_49
REMARK   34  A    between atoms: CB_49  and  CG_50
REMARK   35  A    between atoms: N_53  and  CA_54
REMARK   36  A    between atoms: CA_54  and  C_55
REMARK   37  A    between atoms: CA_54  and  CB_57
REMARK   38  A    between atoms: CB_57  and  CG_58
REMARK   39  A    between atoms: N_64  and  CA_65
REMARK   40  A    between atoms: CA_65  and  C_66
REMARK   41  A    between atoms: CA_65  and  CB_68
REMARK   42  A    between atoms: CB_68  and  CG_69
REMARK   43  A    between atoms: CG_69  and  CD2_70
REMARK   44  A    between atoms: CG_69  and  CD1_71
REMARK   45  A    between atoms: CA_73  and  C_74
REMARK   46  A    between atoms: N_79  and  CA_80
REMARK   47  A    between atoms: CA_80  and  C_81
REMARK   48  A    between atoms: CA_80  and  CB_83
REMARK   49  A    between atoms: CB_83  and  CG_84
REMARK   50  A    between atoms: CG_84  and  CD_85
REMARK   51  A    between atoms: N_88  and  CA_89
REMARK   52  A    between atoms: CA_89  and  C_90
REMARK   53  A    between atoms: CA_89  and  CB_92
REMARK   54  A    between atoms: CB_92  and  CG1_93
REMARK   55  A    between atoms: CB_92  and  CG2_94
REMARK   56  A    between atoms: CG1_93  and  CD1_95
REMARK   57  A    between atoms: N_96  and  CA_97
REMARK   58  A    between atoms: CA_97  and  C_98
REMARK   59  A    between atoms: CA_97  and  CB_100
REMARK   60  A    between atoms: CB_100  and  CG_101
REMARK   61  A    between atoms: CG_101  and  CD1_102
REMARK   62  A    between atoms: CG_101  and  CD2_103
REMARK   63  A    between atoms: N_104  and  CA_105
REMARK   64  A    between atoms: CA_105  and  C_106
REMARK   65  A    between atoms: CA_105  and  CB_108
REMARK   66  A    between atoms: CB_108  and  CG_109
REMARK   67  A    between atoms: CG_109  and  CD_110
REMARK   68  A    between atoms: CD_110  and  CE_111
REMARK   69  A    between atoms: CE_111  and  NZ_112
REMARK   70  A    between atoms: N_113  and  CA_114
REMARK   71  A    between atoms: CA_114  and  C_115
REMARK   72  A    between atoms: CA_114  and  CB_117
REMARK   73  A    between atoms: CB_117  and  CG_118
REMARK   74  A    between atoms: CG_118  and  CD_119
REMARK   75  A    between atoms: CD_119  and  CE_120
REMARK   76  A    between atoms: CE_120  and  NZ_121
REMARK   77  A    between atoms: N_122  and  CA_123
REMARK   78  A    between atoms: CA_123  and  C_124
REMARK   79  A    between atoms: CA_123  and  CB_126
REMARK   80  A    between atoms: CB_126  and  CG1_127
REMARK   81  A    between atoms: CB_126  and  CG2_128
REMARK   82  A    between atoms: CG1_127  and  CD1_129
REMARK   83  A    between atoms: N_130  and  CA_131
REMARK   84  A    between atoms: CA_131  and  C_132
REMARK   85  A    between atoms: CA_131  and  CB_134
REMARK   86  A    between atoms: N_135  and  CA_136
REMARK   87  A    between atoms: CA_136  and  C_137
REMARK   88  A    between atoms: CA_136  and  CB_139
REMARK   89  A    between atoms: CB_139  and  CG_140
REMARK   90  A    between atoms: CG_140  and  CD_141
REMARK   91  A    between atoms: CD_141  and  NE_142
REMARK   92  A    between atoms: N_146  and  CA_147
REMARK   93  A    between atoms: CA_147  and  C_148
REMARK   94  A    between atoms: CA_147  and  CB_150
REMARK   95  A    between atoms: CB_150  and  CG_151
REMARK   96  A    between atoms: CG_151  and  CD_152
REMARK   97  A    between atoms: CD_152  and  CE_153
REMARK   98  A    between atoms: CE_153  and  NZ_154
REMARK   99  A    between atoms: N_155  and  C_156
REMARK  100  A    between atoms: C_156  and  C_157
REMARK  101  A    between atoms: C_156  and  C_159
REMARK  102  A    between atoms: C_159  and  O_160
REMARK                            x       y       z     vdW  Elec       q    Type
REMARK                         _______ _______ _______ _____ _____    ______ ____
ROOT
ATOM      1  CA  GLN A  12     -10.877   4.281   5.978  0.00  0.00    +0.159 C 
ENDROOT
BRANCH   1   4
ATOM      2  C   PRO A  11     -10.738   2.737   7.898  0.00  0.00    +0.234 C 
ATOM      3  O   PRO A  11     -10.361   1.818   7.170  0.00  0.00    -0.274 OA
ATOM      4  N   GLN A  12     -11.110   3.962   7.385  0.00  0.00    -0.302 N 
ATOM      5  H   GLN A  12     -11.167   4.732   8.048  0.00  0.00    +0.149 HD
BRANCH   2   9
ATOM      6  C   LEU A  10     -10.036   4.654  10.301  0.00  0.00    +0.236 C 
ATOM      7  O   LEU A  10      -8.921   4.345   9.857  0.00  0.00    -0.274 OA
ATOM      8  N   PRO A  11     -11.108   3.803  10.126  0.00  0.00    -0.288 N 
ATOM      9  CA  PRO A  11     -10.921   2.538   9.416  0.00  0.00    +0.162 C 
ATOM     10  CB  PRO A  11     -12.177   1.722   9.720  0.00  0.00    +0.033 C 
ATOM     11  CG  PRO A  11     -13.222   2.778  10.051  0.00  0.00    +0.021 C 
ATOM     12  CD  PRO A  11     -12.414   3.842  10.773  0.00  0.00    +0.109 C 
BRANCH   6  13
ATOM     13  CA  LEU A  10     -10.222   6.003  11.054  0.00  0.00    +0.159 C 
BRANCH  13  16
ATOM     14  C   PHE A   9     -11.525   6.718  13.021  0.00  0.00    +0.234 C 
ATOM     15  O   PHE A   9     -11.980   7.672  12.385  0.00  0.00    -0.274 OA
ATOM     16  N   LEU A  10     -10.665   5.815  12.435  0.00  0.00    -0.302 N 
ATOM     17  H   LEU A  10     -10.136   5.186  13.041  0.00  0.00    +0.149 HD
BRANCH  14  18
ATOM     18  CA  PHE A   9     -11.831   6.526  14.517  0.00  0.00    +0.163 C 
BRANCH  18  21
ATOM     19  C   ASN A   8     -13.870   5.110  14.447  0.00  0.00    +0.234 C 
ATOM     20  O   ASN A   8     -14.571   6.050  14.070  0.00  0.00    -0.274 OA
ATOM     21  N   PHE A   9     -12.534   5.263  14.744  0.00  0.00    -0.302 N 
ATOM     22  H   PHE A   9     -11.988   4.411  14.856  0.00  0.00    +0.149 HD
BRANCH  19  23
ATOM     23  CA  ASN A   8     -14.461   3.714  14.726  0.00  0.00    +0.168 C 
BRANCH  23  26
ATOM     24  C   ALA A   7     -14.696   3.939  17.191  0.00  0.00    +0.234 C 
ATOM     25  O   ALA A   7     -15.451   4.905  17.104  0.00  0.00    -0.274 OA
ATOM     26  N   ASN A   8     -14.193   3.273  16.095  0.00  0.00    -0.302 N 
ATOM     27  H   ASN A   8     -13.577   2.484  16.267  0.00  0.00    +0.149 HD
BRANCH  24  28
ATOM     28  CA  ALA A   7     -14.131   3.450  18.538  0.00  0.00    +0.156 C 
ATOM     29  CB  ALA A   7     -14.293   1.930  18.551  0.00  0.00    +0.037 C 
BRANCH  28  32
ATOM     30  C   ALA A   6     -14.102   4.718  20.674  0.00  0.00    +0.234 C 
ATOM     31  O   ALA A   6     -12.978   5.182  20.459  0.00  0.00    -0.274 OA
ATOM     32  N   ALA A   7     -14.820   4.058  19.688  0.00  0.00    -0.303 N 
ATOM     33  H   ALA A   7     -15.612   3.523  20.044  0.00  0.00    +0.149 HD
BRANCH  30  34
ATOM     34  CA  ALA A   6     -14.920   5.062  21.939  0.00  0.00    +0.156 C 
ATOM     35  CB  ALA A   6     -14.953   6.564  22.197  0.00  0.00    +0.037 C 
BRANCH  34  38
ATOM     36  C   LEU A   5     -15.350   3.921  24.064  0.00  0.00    +0.234 C 
ATOM     37  O   LEU A   5     -16.555   3.901  23.820  0.00  0.00    -0.274 OA
ATOM     38  N   ALA A   6     -14.428   4.373  23.126  0.00  0.00    -0.303 N 
ATOM     39  H   ALA A   6     -13.513   4.652  23.473  0.00  0.00    +0.149 HD
BRANCH  36  40
ATOM     40  CA  LEU A   5     -14.799   3.680  25.487  0.00  0.00    +0.159 C 
BRANCH  40  43
ATOM     41  C   GLY A   4     -12.936   2.054  25.523  0.00  0.00    +0.231 C 
ATOM     42  O   GLY A   4     -13.658   1.140  25.908  0.00  0.00    -0.274 OA
ATOM     43  N   LEU A   5     -13.373   3.357  25.408  0.00  0.00    -0.303 N 
ATOM     44  H   LEU A   5     -12.771   4.007  24.924  0.00  0.00    +0.149 HD
BRANCH  41  45
ATOM     45  CA  GLY A   4     -11.455   1.825  25.202  0.00  0.00    +0.200 C 
BRANCH  45  48
ATOM     46  C   SER A   3     -10.995   3.509  23.453  0.00  0.00    +0.236 C 
ATOM     47  O   SER A   3     -11.719   2.948  22.638  0.00  0.00    -0.274 OA
ATOM     48  N   GLY A   4     -10.763   3.012  24.718  0.00  0.00    -0.305 N 
ATOM     49  H   GLY A   4     -10.352   3.639  25.398  0.00  0.00    +0.149 HD
BRANCH  46  50
ATOM     50  CA  SER A   3     -10.197   4.769  23.100  0.00  0.00    +0.184 C 
BRANCH  50  53
ATOM     51  C   ILE A   2      -9.133   4.928  20.884  0.00  0.00    +0.234 C 
ATOM     52  O   ILE A   2      -8.089   4.457  21.337  0.00  0.00    -0.274 OA
ATOM     53  N   SER A   3     -10.276   5.028  21.656  0.00  0.00    -0.301 N 
ATOM     54  H   SER A   3     -10.915   5.782  21.417  0.00  0.00    +0.150 HD
BRANCH  51  55
ATOM     55  CA  ILE A   2      -9.260   5.485  19.443  0.00  0.00    +0.162 C 
BRANCH  55  58
ATOM     56  C   LEU A   1      -9.793   7.884  19.613  0.00  0.00    +0.262 C 
ATOM     57  O   LEU A   1     -10.961   7.643  19.922  0.00  0.00    -0.270 OA
ATOM     58  N   ILE A   2      -8.850   6.901  19.406  0.00  0.00    -0.299 N 
ATOM     59  H   ILE A   2      -7.966   7.127  18.963  0.00  0.00    +0.150 HD
BRANCH  56  60
ATOM     60  CA  LEU A   1      -9.320   9.348  19.544  0.00  0.00    +0.148 C 
BRANCH  60  61
ATOM     61  N   LEU A   1      -9.696  10.040  20.823  0.00  0.00    +0.227 N 
ATOM     62  H1  LEU A   1     -10.717  10.062  20.946  0.00  0.00    +0.200 HD
ATOM     63  H2  LEU A   1      -9.352  11.005  20.900  0.00  0.00    +0.200 HD
ATOM     64  H3  LEU A   1      -9.343   9.499  21.629  0.00  0.00    +0.200 HD
ENDBRANCH  60  61
BRANCH  60  65
ATOM     65  CB  LEU A   1      -7.793   9.334  19.383  0.00  0.00    +0.067 C 
BRANCH  65  66
ATOM     66  CG  LEU A   1      -7.245   9.805  18.025  0.00  0.00    -0.011 C 
ATOM     67  CD2 LEU A   1      -6.592  11.181  18.187  0.00  0.00    +0.007 C 
ATOM     68  CD1 LEU A   1      -6.237   8.816  17.443  0.00  0.00    +0.007 C 
ENDBRANCH  65  66
ENDBRANCH  60  65
ENDBRANCH  56  60
ENDBRANCH  55  58
BRANCH  55  69
ATOM     69  CB  ILE A   2      -8.503   4.591  18.428  0.00  0.00    +0.015 C 
ATOM     70  CG2 ILE A   2      -9.484   3.615  17.764  0.00  0.00    +0.010 C 
BRANCH  69  71
ATOM     71  CG1 ILE A   2      -7.696   5.388  17.378  0.00  0.00    +0.002 C 
ATOM     72  CD1 ILE A   2      -7.537   4.660  16.049  0.00  0.00    +0.004 C 
ENDBRANCH  69  71
ENDBRANCH  55  69
ENDBRANCH  51  55
ENDBRANCH  50  53
BRANCH  50  73
ATOM     73  CB  SER A   3     -10.751   5.959  23.883  0.00  0.00    +0.187 C 
BRANCH  73  74
ATOM     74  OG  SER A   3     -12.072   5.641  24.339  0.00  0.00    -0.393 OA
ATOM     75  H   SER A   3     -12.480   6.482  24.624  0.00  0.00    +0.209 HD
ENDBRANCH  73  74
ENDBRANCH  50  73
ENDBRANCH  46  50
ENDBRANCH  45  48
ENDBRANCH  41  45
ENDBRANCH  40  43
BRANCH  40  76
ATOM     76  CB  LEU A   5     -14.987   4.936  26.357  0.00  0.00    +0.034 C 
BRANCH  76  77
ATOM     77  CG  LEU A   5     -15.979   4.790  27.528  0.00  0.00    -0.015 C 
ATOM     78  CD2 LEU A   5     -17.432   4.952  27.085  0.00  0.00    +0.007 C 
ATOM     79  CD1 LEU A   5     -15.788   3.425  28.197  0.00  0.00    +0.007 C 
ENDBRANCH  76  77
ENDBRANCH  40  76
ENDBRANCH  36  40
ENDBRANCH  34  38
ENDBRANCH  30  34
ENDBRANCH  28  32
ENDBRANCH  24  28
ENDBRANCH  23  26
BRANCH  23  80
ATOM     80  CB  ASN A   8     -15.964   3.745  14.442  0.00  0.00    +0.127 C 
BRANCH  80  81
ATOM     81  CG  ASN A   8     -16.422   2.454  13.804  0.00  0.00    +0.213 C 
ATOM     82  OD1 ASN A   8     -16.304   2.189  12.619  0.00  0.00    -0.276 OA
ATOM     83  ND2 ASN A   8     -17.022   1.581  14.663  0.00  0.00    -0.329 N 
ATOM     84 HD21 ASN A   8     -17.159   1.753  15.649  0.00  0.00    +0.145 HD
ATOM     85 HD22 ASN A   8     -17.357   0.702  14.284  0.00  0.00    +0.145 HD
ENDBRANCH  80  81
ENDBRANCH  23  80
ENDBRANCH  19  23
ENDBRANCH  18  21
BRANCH  18  86
ATOM     86  CB  PHE A   9     -10.524   6.614  15.306  0.00  0.00    +0.067 C 
BRANCH  86  87
ATOM     87  CG  PHE A   9      -9.852   7.955  15.151  0.00  0.00    -0.045 A 
ATOM     88  CD2 PHE A   9     -10.440   9.114  15.675  0.00  0.00    +0.003 A 
ATOM     89  CD1 PHE A   9      -8.645   8.063  14.448  0.00  0.00    +0.003 A 
ATOM     90  CE2 PHE A   9      -9.830  10.357  15.507  0.00  0.00    +0.000 A 
ATOM     91  CE1 PHE A   9      -8.033   9.307  14.282  0.00  0.00    +0.000 A 
ATOM     92  CZ  PHE A   9      -8.626  10.453  14.811  0.00  0.00    +0.000 A 
ENDBRANCH  86  87
ENDBRANCH  18  86
ENDBRANCH  14  18
ENDBRANCH  13  16
BRANCH  13  93
ATOM     93  CB  LEU A  10      -8.933   6.830  10.958  0.00  0.00    +0.034 C 
BRANCH  93  94
ATOM     94  CG  LEU A  10      -8.976   7.981   9.932  0.00  0.00    -0.015 C 
ATOM     95  CD2 LEU A  10      -9.075   9.318  10.669  0.00  0.00    +0.007 C 
ATOM     96  CD1 LEU A  10      -7.757   7.999   9.007  0.00  0.00    +0.007 C 
ENDBRANCH  93  94
ENDBRANCH  13  93
ENDBRANCH   6  13
ENDBRANCH   2   9
ENDBRANCH   1   4
BRANCH   1  97
ATOM     97  C   GLN A  12      -9.859   5.430   5.843  0.00  0.00    +0.234 C 
ATOM     98  O   GLN A  12      -8.820   5.457   6.502  0.00  0.00    -0.274 OA
ATOM     99  N   ILE A  13     -10.141   6.368   4.875  0.00  0.00    -0.302 N 
ATOM    100  H   ILE A  13     -10.934   6.212   4.252  0.00  0.00    +0.149 HD
BRANCH  99 101
ATOM    101  CA  ILE A  13      -9.300   7.549   4.690  0.00  0.00    +0.162 C 
BRANCH 101 102
ATOM    102  C   ILE A  13     -10.127   8.760   5.179  0.00  0.00    +0.234 C 
ATOM    103  O   ILE A  13     -11.134   9.145   4.579  0.00  0.00    -0.274 OA
ATOM    104  N   LEU A  14      -9.679   9.385   6.328  0.00  0.00    -0.302 N 
ATOM    105  H   LEU A  14      -9.030   8.863   6.924  0.00  0.00    +0.149 HD
BRANCH 104 106
ATOM    106  CA  LEU A  14     -10.456  10.482   6.913  0.00  0.00    +0.159 C 
BRANCH 106 107
ATOM    107  C   LEU A  14     -11.559   9.871   7.816  0.00  0.00    +0.234 C 
ATOM    108  O   LEU A  14     -11.757   8.661   7.905  0.00  0.00    -0.274 OA
ATOM    109  N   LYS A  15     -12.298  10.784   8.536  0.00  0.00    -0.302 N 
ATOM    110  H   LYS A  15     -12.021  11.765   8.480  0.00  0.00    +0.149 HD
BRANCH 109 111
ATOM    111  CA  LYS A  15     -13.322  10.402   9.516  0.00  0.00    +0.159 C 
BRANCH 111 112
ATOM    112  C   LYS A  15     -14.712  10.170   8.864  0.00  0.00    +0.234 C 
ATOM    113  O   LYS A  15     -15.124   9.040   8.596  0.00  0.00    -0.274 OA
ATOM    114  N   LYS A  16     -15.475  11.297   8.656  0.00  0.00    -0.302 N 
ATOM    115  H   LYS A  16     -15.075  12.195   8.918  0.00  0.00    +0.149 HD
BRANCH 114 116
ATOM    116  CA  LYS A  16     -16.712  11.277   7.890  0.00  0.00    +0.159 C 
BRANCH 116 117
ATOM    117  C   LYS A  16     -16.682  12.369   6.801  0.00  0.00    +0.234 C 
ATOM    118  O   LYS A  16     -17.366  13.389   6.917  0.00  0.00    -0.274 OA
ATOM    119  N   ILE A  17     -15.731  12.229   5.810  0.00  0.00    -0.302 N 
ATOM    120  H   ILE A  17     -15.243  11.340   5.714  0.00  0.00    +0.149 HD
BRANCH 119 121
ATOM    121  CA  ILE A  17     -15.614  13.237   4.752  0.00  0.00    +0.162 C 
BRANCH 121 122
ATOM    122  C   ILE A  17     -15.824  12.603   3.363  0.00  0.00    +0.234 C 
ATOM    123  O   ILE A  17     -16.931  12.199   3.008  0.00  0.00    -0.274 OA
ATOM    124  N   ALA A  18     -14.709  12.488   2.567  0.00  0.00    -0.303 N 
ATOM    125  H   ALA A  18     -13.818  12.868   2.887  0.00  0.00    +0.149 HD
BRANCH 124 126
ATOM    126  CA  ALA A  18     -14.720  11.795   1.272  0.00  0.00    +0.156 C 
ATOM    127  CB  ALA A  18     -14.579  12.786   0.124  0.00  0.00    +0.037 C 
BRANCH 126 128
ATOM    128  C   ALA A  18     -13.615  10.701   1.211  0.00  0.00    +0.234 C 
ATOM    129  O   ALA A  18     -12.916  10.370   2.164  0.00  0.00    -0.274 OA
ATOM    130  N   ARG A  19     -13.367  10.242  -0.065  0.00  0.00    -0.302 N 
ATOM    131  H   ARG A  19     -14.059  10.419  -0.780  0.00  0.00    +0.149 HD
BRANCH 130 132
ATOM    132  CA  ARG A  19     -12.108   9.652  -0.495  0.00  0.00    +0.159 C 
BRANCH 132 133
ATOM    133  C   ARG A  19     -11.576  10.489  -1.689  0.00  0.00    +0.234 C 
ATOM    134  O   ARG A  19     -10.859  11.478  -1.554  0.00  0.00    -0.274 OA
ATOM    135  N   LYS A  20     -12.072  10.124  -2.921  0.00  0.00    -0.302 N 
ATOM    136  H   LYS A  20     -12.548   9.230  -3.045  0.00  0.00    +0.149 HD
BRANCH 135 137
ATOM    137  CA  LYS A  20     -11.863  10.939  -4.110  0.00  0.00    +0.159 C 
BRANCH 137 138
ATOM    138  C   LYS A  20     -13.211  11.350  -4.740  0.00  0.00    +0.234 C 
ATOM    139  O   LYS A  20     -14.288  11.010  -4.245  0.00  0.00    -0.274 OA
ATOM    140  N   UNK A  21     -13.105  12.065  -5.905  0.00  0.00    -0.304 N 
ATOM    141  H   UNK A  21     -12.206  11.986  -6.372  0.00  0.00    +0.149 HD
BRANCH 140 142
ATOM    142  C   UNK A  21     -14.173  12.025  -6.919  0.00  0.00    +0.144 C 
BRANCH 142 143
ATOM    143  C   UNK A  21     -13.544  11.859  -8.333  0.00  0.00    +0.064 C 
ATOM    144  O   UNK A  21     -14.072  10.980  -9.062  0.00  0.00    -0.548 OA
ATOM    145  O   UNK A  21     -12.491  12.554  -8.498  0.00  0.00    -0.548 OA
ENDBRANCH 142 143
BRANCH 142 146
ATOM    146  C   UNK A  21     -14.924  13.358  -6.942  0.00  0.00    +0.184 C 
BRANCH 146 147
ATOM    147  O   UNK A  21     -15.557  13.582  -8.213  0.00  0.00    -0.393 OA
ATOM    148  H   UNK A  21     -16.102  12.765  -8.348  0.00  0.00    +0.209 HD
ENDBRANCH 146 147
ENDBRANCH 142 146
ENDBRANCH 140 142
ENDBRANCH 137 138
BRANCH 137 149
ATOM    149  CB  LYS A  20     -10.953  10.219  -5.120  0.00  0.00    +0.032 C 
BRANCH 149 150
ATOM    150  CG  LYS A  20     -11.446   8.803  -5.464  0.00  0.00    +0.007 C 
BRANCH 150 151
ATOM    151  CD  LYS A  20     -10.328   7.745  -5.470  0.00  0.00    +0.051 C 
BRANCH 151 152
ATOM    152  CE  LYS A  20     -10.844   6.343  -5.796  0.00  0.00    +0.127 C 
BRANCH 152 153
ATOM    153  NZ  LYS A  20     -12.149   6.112  -5.148  0.00  0.00    +0.218 N 
ATOM    154  HZ1 LYS A  20     -12.072   5.980  -4.132  0.00  0.00    +0.199 HD
ATOM    155  HZ2 LYS A  20     -12.685   5.326  -5.530  0.00  0.00    +0.199 HD
ATOM    156  HZ3 LYS A  20     -12.777   6.947  -5.205  0.00  0.00    +0.199 HD
ENDBRANCH 152 153
ENDBRANCH 151 152
ENDBRANCH 150 151
ENDBRANCH 149 150
ENDBRANCH 137 149
ENDBRANCH 135 137
ENDBRANCH 132 133
BRANCH 132 157
ATOM    157  CB  ARG A  19     -12.311   8.174  -0.853  0.00  0.00    +0.035 C 
BRANCH 157 158
ATOM    158  CG  ARG A  19     -11.066   7.312  -0.615  0.00  0.00    +0.039 C 
BRANCH 158 159
ATOM    159  CD  ARG A  19     -10.196   7.207  -1.859  0.00  0.00    +0.196 C 
BRANCH 159 160
ATOM    160  NE  ARG A  19      -9.878   5.809  -2.172  0.00  0.00    -0.279 N 
ATOM    161  CZ  ARG A  19      -8.767   5.188  -1.755  0.00  0.00    +0.341 C 
ATOM    162  NH1 ARG A  19      -7.767   5.848  -1.163  0.00  0.00    -0.292 N 
ATOM    163  NH2 ARG A  19      -8.641   3.871  -1.940  0.00  0.00    -0.292 N 
ATOM    164  HE  ARG A  19     -10.587   5.260  -2.643  0.00  0.00    +0.258 HD
ATOM    165 HH11 ARG A  19      -7.827   6.845  -0.998  0.00  0.00    +0.255 HD
ATOM    166 HH12 ARG A  19      -6.944   5.377  -0.812  0.00  0.00    +0.255 HD
ATOM    167 HH21 ARG A  19      -9.414   3.322  -2.294  0.00  0.00    +0.255 HD
ATOM    168 HH22 ARG A  19      -7.842   3.368  -1.576  0.00  0.00    +0.255 HD
ENDBRANCH 159 160
ENDBRANCH 158 159
ENDBRANCH 157 158
ENDBRANCH 132 157
ENDBRANCH 130 132
ENDBRANCH 126 128
ENDBRANCH 124 126
ENDBRANCH 121 122
BRANCH 121 169
ATOM    169  CB  ILE A  17     -14.338  14.105   4.819  0.00  0.00    +0.015 C 
ATOM    170  CG2 ILE A  17     -14.668  15.546   4.404  0.00  0.00    +0.010 C 
BRANCH 169 171
ATOM    171  CG1 ILE A  17     -13.619  14.054   6.178  0.00  0.00    +0.002 C 
ATOM    172  CD1 ILE A  17     -12.935  15.361   6.559  0.00  0.00    +0.004 C 
ENDBRANCH 169 171
ENDBRANCH 121 169
ENDBRANCH 119 121
ENDBRANCH 116 117
BRANCH 116 173
ATOM    173  CB  LYS A  16     -17.928  11.465   8.811  0.00  0.00    +0.032 C 
BRANCH 173 174
ATOM    174  CG  LYS A  16     -19.026  10.414   8.592  0.00  0.00    +0.007 C 
BRANCH 174 175
ATOM    175  CD  LYS A  16     -20.418  11.058   8.596  0.00  0.00    +0.051 C 
BRANCH 175 176
ATOM    176  CE  LYS A  16     -20.402  12.554   8.300  0.00  0.00    +0.127 C 
BRANCH 176 177
ATOM    177  NZ  LYS A  16     -20.536  12.808   6.848  0.00  0.00    +0.218 N 
ATOM    178  HZ1 LYS A  16     -19.729  12.457   6.318  0.00  0.00    +0.199 HD
ATOM    179  HZ2 LYS A  16     -20.600  13.819   6.662  0.00  0.00    +0.199 HD
ATOM    180  HZ3 LYS A  16     -21.387  12.378   6.462  0.00  0.00    +0.199 HD
ENDBRANCH 176 177
ENDBRANCH 175 176
ENDBRANCH 174 175
ENDBRANCH 173 174
ENDBRANCH 116 173
ENDBRANCH 114 116
ENDBRANCH 111 112
BRANCH 111 181
ATOM    181  CB  LYS A  15     -13.388  11.499  10.587  0.00  0.00    +0.032 C 
BRANCH 181 182
ATOM    182  CG  LYS A  15     -13.202  11.058  12.040  0.00  0.00    +0.007 C 
BRANCH 182 183
ATOM    183  CD  LYS A  15     -11.724  11.211  12.431  0.00  0.00    +0.051 C 
BRANCH 183 184
ATOM    184  CE  LYS A  15     -11.385  12.622  12.883  0.00  0.00    +0.127 C 
BRANCH 184 185
ATOM    185  NZ  LYS A  15     -12.101  12.906  14.152  0.00  0.00    +0.218 N 
ATOM    186  HZ1 LYS A  15     -13.122  12.846  14.031  0.00  0.00    +0.199 HD
ATOM    187  HZ2 LYS A  15     -11.901  13.853  14.500  0.00  0.00    +0.199 HD
ATOM    188  HZ3 LYS A  15     -11.845  12.245  14.898  0.00  0.00    +0.199 HD
ENDBRANCH 184 185
ENDBRANCH 183 184
ENDBRANCH 182 183
ENDBRANCH 181 182
ENDBRANCH 111 181
ENDBRANCH 109 111
ENDBRANCH 106 107
BRANCH 106 189
ATOM    189  CB  LEU A  14     -11.065  11.356   5.812  0.00  0.00    +0.034 C 
BRANCH 189 190
ATOM    190  CG  LEU A  14     -10.116  12.416   5.218  0.00  0.00    -0.015 C 
ATOM    191  CD1 LEU A  14     -10.716  13.139   4.011  0.00  0.00    +0.007 C 
ATOM    192  CD2 LEU A  14      -9.746  13.436   6.298  0.00  0.00    +0.007 C 
ENDBRANCH 189 190
ENDBRANCH 106 189
ENDBRANCH 104 106
ENDBRANCH 101 102
BRANCH 101 193
ATOM    193  CB  ILE A  13      -8.830   7.692   3.223  0.00  0.00    +0.015 C 
ATOM    194  CG2 ILE A  13      -8.737   9.168   2.808  0.00  0.00    +0.010 C 
BRANCH 193 195
ATOM    195  CG1 ILE A  13      -7.460   6.997   3.040  0.00  0.00    +0.002 C 
ATOM    196  CD1 ILE A  13      -6.277   7.952   3.117  0.00  0.00    +0.004 C 
ENDBRANCH 193 195
ENDBRANCH 101 193
ENDBRANCH  99 101
ENDBRANCH   1  97
BRANCH   1 197
ATOM    197  CB  GLN A  12     -12.158   4.680   5.247  0.00  0.00    +0.041 C 
BRANCH 197 198
ATOM    198  CG  GLN A  12     -12.328   3.948   3.921  0.00  0.00    +0.098 C 
BRANCH 198 199
ATOM    199  CD  GLN A  12     -13.336   4.672   3.059  0.00  0.00    +0.211 C 
ATOM    200  OE1 GLN A  12     -14.529   4.741   3.335  0.00  0.00    -0.276 OA
ATOM    201  NE2 GLN A  12     -12.819   5.293   1.965  0.00  0.00    -0.329 N 
ATOM    202 HE21 GLN A  12     -11.943   4.960   1.561  0.00  0.00    +0.145 HD
ATOM    203 HE22 GLN A  12     -13.485   5.699   1.319  0.00  0.00    +0.145 HD
ENDBRANCH 198 199
ENDBRANCH 197 198
ENDBRANCH   1 197
TORSDOF 85
ENDMDL
MODEL 4
REMARK minimizedAffinity -5.07683945
REMARK minimizedRMSD -1
REMARK  Name = crb16.pdb
REMARK  102 active torsions:
REMARK  status: ('A' for Active; 'I' for Inactive)
REMARK    1  A    between atoms: N_1  and  CA_2
REMARK    2  A    between atoms: CA_2  and  C_3
REMARK    3  A    between atoms: CA_2  and  CB_5
REMARK    4  A    between atoms: CB_5  and  CG_6
REMARK    5  A    between atoms: CG_6  and  CD2_7
REMARK    6  A    between atoms: CG_6  and  CD1_8
REMARK    7  A    between atoms: N_9  and  CA_10
REMARK    8  A    between atoms: CA_10  and  C_11
REMARK    9  A    between atoms: CA_10  and  CB_13
REMARK   10  A    between atoms: CB_13  and  CG1_14
REMARK   11  A    between atoms: CB_13  and  CG2_15
REMARK   12  A    between atoms: CG1_14  and  CD1_16
REMARK   13  A    between atoms: N_17  and  CA_18
REMARK   14  A    between atoms: CA_18  and  C_19
REMARK   15  A    between atoms: CA_18  and  CB_21
REMARK   16  A    between atoms: CB_21  and  OG_22
REMARK   17  A    between atoms: N_23  and  CA_24
REMARK   18  A    between atoms: CA_24  and  C_25
REMARK   19  A    between atoms: N_27  and  CA_28
REMARK   20  A    between atoms: CA_28  and  C_29
REMARK   21  A    between atoms: CA_28  and  CB_31
REMARK   22  A    between atoms: CB_31  and  CG_32
REMARK   23  A    between atoms: CG_32  and  CD2_33
REMARK   24  A    between atoms: CG_32  and  CD1_34
REMARK   25  A    between atoms: N_35  and  CA_36
REMARK   26  A    between atoms: CA_36  and  C_37
REMARK   27  A    between atoms: CA_36  and  CB_39
REMARK   28  A    between atoms: N_40  and  CA_41
REMARK   29  A    between atoms: CA_41  and  C_42
REMARK   30  A    between atoms: CA_41  and  CB_44
REMARK   31  A    between atoms: N_45  and  CA_46
REMARK   32  A    between atoms: CA_46  and  C_47
REMARK   33  A    between atoms: CA_46  and  CB_49
REMARK   34  A    between atoms: CB_49  and  CG_50
REMARK   35  A    between atoms: N_53  and  CA_54
REMARK   36  A    between atoms: CA_54  and  C_55
REMARK   37  A    between atoms: CA_54  and  CB_57
REMARK   38  A    between atoms: CB_57  and  CG_58
REMARK   39  A    between atoms: N_64  and  CA_65
REMARK   40  A    between atoms: CA_65  and  C_66
REMARK   41  A    between atoms: CA_65  and  CB_68
REMARK   42  A    between atoms: CB_68  and  CG_69
REMARK   43  A    between atoms: CG_69  and  CD2_70
REMARK   44  A    between atoms: CG_69  and  CD1_71
REMARK   45  A    between atoms: CA_73  and  C_74
REMARK   46  A    between atoms: N_79  and  CA_80
REMARK   47  A    between atoms: CA_80  and  C_81
REMARK   48  A    between atoms: CA_80  and  CB_83
REMARK   49  A    between atoms: CB_83  and  CG_84
REMARK   50  A    between atoms: CG_84  and  CD_85
REMARK   51  A    between atoms: N_88  and  CA_89
REMARK   52  A    between atoms: CA_89  and  C_90
REMARK   53  A    between atoms: CA_89  and  CB_92
REMARK   54  A    between atoms: CB_92  and  CG1_93
REMARK   55  A    between atoms: CB_92  and  CG2_94
REMARK   56  A    between atoms: CG1_93  and  CD1_95
REMARK   57  A    between atoms: N_96  and  CA_97
REMARK   58  A    between atoms: CA_97  and  C_98
REMARK   59  A    between atoms: CA_97  and  CB_100
REMARK   60  A    between atoms: CB_100  and  CG_101
REMARK   61  A    between atoms: CG_101  and  CD1_102
REMARK   62  A    between atoms: CG_101  and  CD2_103
REMARK   63  A    between atoms: N_104  and  CA_105
REMARK   64  A    between atoms: CA_105  and  C_106
REMARK   65  A    between atoms: CA_105  and  CB_108
REMARK   66  A    between atoms: CB_108  and  CG_109
REMARK   67  A    between atoms: CG_109  and  CD_110
REMARK   68  A    between atoms: CD_110  and  CE_111
REMARK   69  A    between atoms: CE_111  and  NZ_112
REMARK   70  A    between atoms: N_113  and  CA_114
REMARK   71  A    between atoms: CA_114  and  C_115
REMARK   72  A    between atoms: CA_114  and  CB_117
REMARK   73  A    between atoms: CB_117  and  CG_118
REMARK   74  A    between atoms: CG_118  and  CD_119
REMARK   75  A    between atoms: CD_119  and  CE_120
REMARK   76  A    between atoms: CE_120  and  NZ_121
REMARK   77  A    between atoms: N_122  and  CA_123
REMARK   78  A    between atoms: CA_123  and  C_124
REMARK   79  A    between atoms: CA_123  and  CB_126
REMARK   80  A    between atoms: CB_126  and  CG1_127
REMARK   81  A    between atoms: CB_126  and  CG2_128
REMARK   82  A    between atoms: CG1_127  and  CD1_129
REMARK   83  A    between atoms: N_130  and  CA_131
REMARK   84  A    between atoms: CA_131  and  C_132
REMARK   85  A    between atoms: CA_131  and  CB_134
REMARK   86  A    between atoms: N_135  and  CA_136
REMARK   87  A    between atoms: CA_136  and  C_137
REMARK   88  A    between atoms: CA_136  and  CB_139
REMARK   89  A    between atoms: CB_139  and  CG_140
REMARK   90  A    between atoms: CG_140  and  CD_141
REMARK   91  A    between atoms: CD_141  and  NE_142
REMARK   92  A    between atoms: N_146  and  CA_147
REMARK   93  A    between atoms: CA_147  and  C_148
REMARK   94  A    between atoms: CA_147  and  CB_150
REMARK   95  A    between atoms: CB_150  and  CG_151
REMARK   96  A    between atoms: CG_151  and  CD_152
REMARK   97  A    between atoms: CD_152  and  CE_153
REMARK   98  A    between atoms: CE_153  and  NZ_154
REMARK   99  A    between atoms: N_155  and  C_156
REMARK  100  A    between atoms: C_156  and  C_157
REMARK  101  A    between atoms: C_156  and  C_159
REMARK  102  A    between atoms: C_159  and  O_160
REMARK                            x       y       z     vdW  Elec       q    Type
REMARK                         _______ _______ _______ _____ _____    ______ ____
ROOT
ATOM      1  CA  GLN A  12     -11.034   7.602   0.154  0.00  0.00    +0.159 C 
ENDROOT
BRANCH   1   4
ATOM      2  C   PRO A  11      -9.347   7.200  -1.602  0.00  0.00    +0.234 C 
ATOM      3  O   PRO A  11      -8.930   8.354  -1.508  0.00  0.00    -0.274 OA
ATOM      4  N   GLN A  12     -10.447   6.766  -0.891  0.00  0.00    -0.302 N 
ATOM      5  H   GLN A  12     -10.576   5.759  -0.828  0.00  0.00    +0.149 HD
BRANCH   2   9
ATOM      6  C   LEU A  10     -10.310   6.343  -4.480  0.00  0.00    +0.236 C 
ATOM      7  O   LEU A  10     -11.191   5.878  -3.743  0.00  0.00    -0.274 OA
ATOM      8  N   PRO A  11      -9.036   6.541  -3.991  0.00  0.00    -0.288 N 
ATOM      9  CA  PRO A  11      -8.731   6.200  -2.602  0.00  0.00    +0.162 C 
ATOM     10  CB  PRO A  11      -7.205   6.204  -2.518  0.00  0.00    +0.033 C 
ATOM     11  CG  PRO A  11      -6.782   7.120  -3.657  0.00  0.00    +0.021 C 
ATOM     12  CD  PRO A  11      -7.812   6.823  -4.733  0.00  0.00    +0.109 C 
BRANCH   6  13
ATOM     13  CA  LEU A  10     -10.648   6.702  -5.956  0.00  0.00    +0.159 C 
BRANCH  13  16
ATOM     14  C   PHE A   9      -9.705   5.491  -7.886  0.00  0.00    +0.234 C 
ATOM     15  O   PHE A   9      -8.894   6.401  -8.074  0.00  0.00    -0.274 OA
ATOM     16  N   LEU A  10     -10.600   5.536  -6.839  0.00  0.00    -0.302 N 
ATOM     17  H   LEU A  10     -11.394   4.894  -6.851  0.00  0.00    +0.149 HD
BRANCH  14  18
ATOM     18  CA  PHE A   9      -9.814   4.295  -8.849  0.00  0.00    +0.163 C 
BRANCH  18  21
ATOM     19  C   ASN A   8     -10.757   3.955 -11.121  0.00  0.00    +0.234 C 
ATOM     20  O   ASN A   8     -11.056   2.786 -10.876  0.00  0.00    -0.274 OA
ATOM     21  N   PHE A   9     -10.098   4.750 -10.211  0.00  0.00    -0.302 N 
ATOM     22  H   PHE A   9     -10.065   5.748 -10.411  0.00  0.00    +0.149 HD
BRANCH  19  23
ATOM     23  CA  ASN A   8     -10.996   4.584 -12.508  0.00  0.00    +0.168 C 
BRANCH  23  26
ATOM     24  C   ALA A   7     -10.279   6.854 -13.226  0.00  0.00    +0.234 C 
ATOM     25  O   ALA A   7     -11.428   7.289 -13.251  0.00  0.00    -0.274 OA
ATOM     26  N   ASN A   8      -9.967   5.567 -12.845  0.00  0.00    -0.302 N 
ATOM     27  H   ASN A   8      -8.987   5.299 -12.855  0.00  0.00    +0.149 HD
BRANCH  24  28
ATOM     28  CA  ALA A   7      -9.076   7.667 -13.741  0.00  0.00    +0.156 C 
ATOM     29  CB  ALA A   7      -8.318   8.152 -12.506  0.00  0.00    +0.037 C 
BRANCH  28  32
ATOM     30  C   ALA A   6      -9.418   8.721 -15.965  0.00  0.00    +0.234 C 
ATOM     31  O   ALA A   6      -9.421   7.635 -16.552  0.00  0.00    -0.274 OA
ATOM     32  N   ALA A   7      -9.487   8.803 -14.582  0.00  0.00    -0.303 N 
ATOM     33  H   ALA A   7      -9.239   9.721 -14.211  0.00  0.00    +0.149 HD
BRANCH  30  34
ATOM     34  CA  ALA A   6      -9.619  10.067 -16.696  0.00  0.00    +0.156 C 
ATOM     35  CB  ALA A   6      -9.257  11.250 -15.804  0.00  0.00    +0.037 C 
BRANCH  34  38
ATOM     36  C   LEU A   5     -11.209  10.070 -18.560  0.00  0.00    +0.234 C 
ATOM     37  O   LEU A   5     -10.352   9.594 -19.303  0.00  0.00    -0.274 OA
ATOM     38  N   ALA A   6     -10.978  10.232 -17.198  0.00  0.00    -0.303 N 
ATOM     39  H   ALA A   6     -11.574  10.891 -16.701  0.00  0.00    +0.149 HD
BRANCH  36  40
ATOM     40  CA  LEU A   5     -12.490  10.737 -19.109  0.00  0.00    +0.159 C 
BRANCH  40  43
ATOM     41  C   GLY A   4     -14.250  11.825 -17.755  0.00  0.00    +0.231 C 
ATOM     42  O   GLY A   4     -15.147  11.176 -18.284  0.00  0.00    -0.274 OA
ATOM     43  N   LEU A   5     -12.937  11.772 -18.175  0.00  0.00    -0.303 N 
ATOM     44  H   LEU A   5     -12.242  12.200 -17.580  0.00  0.00    +0.149 HD
BRANCH  41  45
ATOM     45  CA  GLY A   4     -14.537  12.809 -16.616  0.00  0.00    +0.200 C 
BRANCH  45  48
ATOM     46  C   SER A   3     -12.967  12.550 -14.726  0.00  0.00    +0.236 C 
ATOM     47  O   SER A   3     -12.064  13.129 -15.319  0.00  0.00    -0.274 OA
ATOM     48  N   GLY A   4     -14.199  12.301 -15.294  0.00  0.00    -0.305 N 
ATOM     49  H   GLY A   4     -14.953  12.035 -14.673  0.00  0.00    +0.149 HD
BRANCH  46  50
ATOM     50  CA  SER A   3     -12.771  11.957 -13.327  0.00  0.00    +0.184 C 
BRANCH  50  53
ATOM     51  C   ILE A   2     -13.184  13.284 -11.294  0.00  0.00    +0.234 C 
ATOM     52  O   ILE A   2     -11.983  13.538 -11.199  0.00  0.00    -0.274 OA
ATOM     53  N   SER A   3     -13.694  12.590 -12.376  0.00  0.00    -0.301 N 
ATOM     54  H   SER A   3     -14.532  12.041 -12.203  0.00  0.00    +0.150 HD
BRANCH  51  55
ATOM     55  CA  ILE A   2     -14.224  13.672 -10.212  0.00  0.00    +0.162 C 
BRANCH  55  58
ATOM     56  C   LEU A   1     -13.767  12.298  -8.218  0.00  0.00    +0.262 C 
ATOM     57  O   LEU A   1     -14.264  11.301  -8.744  0.00  0.00    -0.270 OA
ATOM     58  N   ILE A   2     -13.643  13.508  -8.865  0.00  0.00    -0.299 N 
ATOM     59  H   ILE A   2     -13.418  14.347  -8.341  0.00  0.00    +0.150 HD
BRANCH  56  60
ATOM     60  CA  LEU A   1     -13.163  12.182  -6.806  0.00  0.00    +0.148 C 
BRANCH  60  61
ATOM     61  N   LEU A   1     -11.882  12.964  -6.761  0.00  0.00    +0.227 N 
ATOM     62  H1  LEU A   1     -11.188  12.578  -7.415  0.00  0.00    +0.200 HD
ATOM     63  H2  LEU A   1     -11.444  13.009  -5.832  0.00  0.00    +0.200 HD
ATOM     64  H3  LEU A   1     -12.050  13.929  -7.092  0.00  0.00    +0.200 HD
ENDBRANCH  60  61
BRANCH  60  65
ATOM     65  CB  LEU A   1     -14.177  12.777  -5.818  0.00  0.00    +0.067 C 
BRANCH  65  66
ATOM     66  CG  LEU A   1     -13.922  12.498  -4.327  0.00  0.00    -0.011 C 
ATOM     67  CD2 LEU A   1     -13.761  13.826  -3.580  0.00  0.00    +0.007 C 
ATOM     68  CD1 LEU A   1     -15.049  11.681  -3.698  0.00  0.00    +0.007 C 
ENDBRANCH  65  66
ENDBRANCH  60  65
ENDBRANCH  56  60
ENDBRANCH  55  58
BRANCH  55  69
ATOM     69  CB  ILE A   2     -14.802  15.086 -10.471  0.00  0.00    +0.015 C 
ATOM     70  CG2 ILE A   2     -14.781  15.901  -9.170  0.00  0.00    +0.010 C 
BRANCH  69  71
ATOM     71  CG1 ILE A   2     -14.108  15.842 -11.626  0.00  0.00    +0.002 C 
ATOM     72  CD1 ILE A   2     -15.028  16.134 -12.805  0.00  0.00    +0.004 C 
ENDBRANCH  69  71
ENDBRANCH  55  69
ENDBRANCH  51  55
ENDBRANCH  50  53
BRANCH  50  73
ATOM     73  CB  SER A   3     -13.011  10.448 -13.375  0.00  0.00    +0.187 C 
BRANCH  73  74
ATOM     74  OG  SER A   3     -12.376   9.914 -14.543  0.00  0.00    -0.393 OA
ATOM     75  H   SER A   3     -12.735   9.013 -14.670  0.00  0.00    +0.209 HD
ENDBRANCH  73  74
ENDBRANCH  50  73
ENDBRANCH  46  50
ENDBRANCH  45  48
ENDBRANCH  41  45
ENDBRANCH  40  43
BRANCH  40  76
ATOM     76  CB  LEU A   5     -12.217  11.376 -20.482  0.00  0.00    +0.034 C 
BRANCH  76  77
ATOM     77  CG  LEU A   5     -13.467  11.699 -21.324  0.00  0.00    -0.015 C 
ATOM     78  CD2 LEU A   5     -13.141  12.549 -22.552  0.00  0.00    +0.007 C 
ATOM     79  CD1 LEU A   5     -14.146  10.396 -21.759  0.00  0.00    +0.007 C 
ENDBRANCH  76  77
ENDBRANCH  40  76
ENDBRANCH  36  40
ENDBRANCH  34  38
ENDBRANCH  30  34
ENDBRANCH  28  32
ENDBRANCH  24  28
ENDBRANCH  23  26
BRANCH  23  80
ATOM     80  CB  ASN A   8     -11.059   3.470 -13.555  0.00  0.00    +0.127 C 
BRANCH  80  81
ATOM     81  CG  ASN A   8      -9.672   3.044 -13.977  0.00  0.00    +0.213 C 
ATOM     82  OD1 ASN A   8      -8.952   3.680 -14.729  0.00  0.00    -0.276 OA
ATOM     83  ND2 ASN A   8      -9.268   1.845 -13.465  0.00  0.00    -0.329 N 
ATOM     84 HD21 ASN A   8      -9.827   1.270 -12.850  0.00  0.00    +0.145 HD
ATOM     85 HD22 ASN A   8      -8.348   1.508 -13.724  0.00  0.00    +0.145 HD
ENDBRANCH  80  81
ENDBRANCH  23  80
ENDBRANCH  19  23
ENDBRANCH  18  21
BRANCH  18  86
ATOM     86  CB  PHE A   9      -8.528   3.472  -8.767  0.00  0.00    +0.067 C 
BRANCH  86  87
ATOM     87  CG  PHE A   9      -8.669   2.280  -7.854  0.00  0.00    -0.045 A 
ATOM     88  CD2 PHE A   9      -9.550   1.237  -8.172  0.00  0.00    +0.003 A 
ATOM     89  CD1 PHE A   9      -7.947   2.217  -6.655  0.00  0.00    +0.003 A 
ATOM     90  CE2 PHE A   9      -9.700   0.148  -7.313  0.00  0.00    +0.000 A 
ATOM     91  CE1 PHE A   9      -8.095   1.126  -5.797  0.00  0.00    +0.000 A 
ATOM     92  CZ  PHE A   9      -8.972   0.093  -6.127  0.00  0.00    +0.000 A 
ENDBRANCH  86  87
ENDBRANCH  18  86
ENDBRANCH  14  18
ENDBRANCH  13  16
BRANCH  13  93
ATOM     93  CB  LEU A  10     -11.997   7.429  -6.016  0.00  0.00    +0.034 C 
BRANCH  93  94
ATOM     94  CG  LEU A  10     -11.913   8.963  -5.891  0.00  0.00    -0.015 C 
ATOM     95  CD2 LEU A  10     -12.172   9.373  -4.440  0.00  0.00    +0.007 C 
ATOM     96  CD1 LEU A  10     -10.564   9.524  -6.345  0.00  0.00    +0.007 C 
ENDBRANCH  93  94
ENDBRANCH  13  93
ENDBRANCH   6  13
ENDBRANCH   2   9
ENDBRANCH   1   4
BRANCH   1  97
ATOM     97  C   GLN A  12     -10.664   7.065   1.551  0.00  0.00    +0.234 C 
ATOM     98  O   GLN A  12     -11.193   6.060   2.020  0.00  0.00    -0.274 OA
ATOM     99  N   ILE A  13      -9.640   7.727   2.192  0.00  0.00    -0.302 N 
ATOM    100  H   ILE A  13      -9.132   8.456   1.690  0.00  0.00    +0.149 HD
BRANCH  99 101
ATOM    101  CA  ILE A  13      -9.236   7.370   3.551  0.00  0.00    +0.162 C 
BRANCH 101 102
ATOM    102  C   ILE A  13     -10.102   8.224   4.506  0.00  0.00    +0.234 C 
ATOM    103  O   ILE A  13     -11.181   7.815   4.945  0.00  0.00    -0.274 OA
ATOM    104  N   LEU A  14      -9.599   9.466   4.846  0.00  0.00    -0.302 N 
ATOM    105  H   LEU A  14      -8.600   9.626   4.690  0.00  0.00    +0.149 HD
BRANCH 104 106
ATOM    106  CA  LEU A  14     -10.311  10.299   5.820  0.00  0.00    +0.159 C 
BRANCH 106 107
ATOM    107  C   LEU A  14     -10.365  11.750   5.274  0.00  0.00    +0.234 C 
ATOM    108  O   LEU A  14      -9.503  12.590   5.521  0.00  0.00    -0.274 OA
ATOM    109  N   LYS A  15     -11.444  12.031   4.466  0.00  0.00    -0.302 N 
ATOM    110  H   LYS A  15     -12.074  11.262   4.233  0.00  0.00    +0.149 HD
BRANCH 109 111
ATOM    111  CA  LYS A  15     -11.626  13.315   3.777  0.00  0.00    +0.159 C 
BRANCH 111 112
ATOM    112  C   LYS A  15     -13.115  13.750   3.711  0.00  0.00    +0.234 C 
ATOM    113  O   LYS A  15     -13.515  14.578   2.891  0.00  0.00    -0.274 OA
ATOM    114  N   LYS A  16     -13.967  13.112   4.585  0.00  0.00    -0.302 N 
ATOM    115  H   LYS A  16     -13.568  12.427   5.222  0.00  0.00    +0.149 HD
BRANCH 114 116
ATOM    116  CA  LYS A  16     -15.347  13.531   4.781  0.00  0.00    +0.159 C 
BRANCH 116 117
ATOM    117  C   LYS A  16     -15.602  13.842   6.271  0.00  0.00    +0.234 C 
ATOM    118  O   LYS A  16     -16.691  13.584   6.788  0.00  0.00    -0.274 OA
ATOM    119  N   ILE A  17     -14.510  14.243   7.015  0.00  0.00    -0.302 N 
ATOM    120  H   ILE A  17     -13.654  14.513   6.533  0.00  0.00    +0.149 HD
BRANCH 119 121
ATOM    121  CA  ILE A  17     -14.658  14.531   8.444  0.00  0.00    +0.162 C 
BRANCH 121 122
ATOM    122  C   ILE A  17     -15.339  15.896   8.663  0.00  0.00    +0.234 C 
ATOM    123  O   ILE A  17     -14.692  16.942   8.634  0.00  0.00    -0.274 OA
ATOM    124  N   ALA A  18     -16.689  15.874   8.922  0.00  0.00    -0.303 N 
ATOM    125  H   ALA A  18     -17.193  14.986   8.902  0.00  0.00    +0.149 HD
BRANCH 124 126
ATOM    126  CA  ALA A  18     -17.455  17.076   9.276  0.00  0.00    +0.156 C 
ATOM    127  CB  ALA A  18     -17.945  17.795   8.026  0.00  0.00    +0.037 C 
BRANCH 126 128
ATOM    128  C   ALA A  18     -18.637  16.730  10.226  0.00  0.00    +0.234 C 
ATOM    129  O   ALA A  18     -18.546  16.668  11.449  0.00  0.00    -0.274 OA
ATOM    130  N   ARG A  19     -19.776  16.329   9.561  0.00  0.00    -0.302 N 
ATOM    131  H   ARG A  19     -19.857  16.545   8.578  0.00  0.00    +0.149 HD
BRANCH 130 132
ATOM    132  CA  ARG A  19     -20.809  15.481  10.139  0.00  0.00    +0.159 C 
BRANCH 132 133
ATOM    133  C   ARG A  19     -21.239  14.455   9.057  0.00  0.00    +0.234 C 
ATOM    134  O   ARG A  19     -22.383  14.013   8.963  0.00  0.00    -0.274 OA
ATOM    135  N   LYS A  20     -20.213  13.966   8.280  0.00  0.00    -0.302 N 
ATOM    136  H   LYS A  20     -19.305  14.430   8.267  0.00  0.00    +0.149 HD
BRANCH 135 137
ATOM    137  CA  LYS A  20     -20.398  12.836   7.380  0.00  0.00    +0.159 C 
BRANCH 137 138
ATOM    138  C   LYS A  20     -19.702  11.573   7.933  0.00  0.00    +0.234 C 
ATOM    139  O   LYS A  20     -20.346  10.611   8.357  0.00  0.00    -0.274 OA
ATOM    140  N   UNK A  21     -18.332  11.639   7.961  0.00  0.00    -0.304 N 
ATOM    141  H   UNK A  21     -17.951  12.580   7.909  0.00  0.00    +0.149 HD
BRANCH 140 142
ATOM    142  C   UNK A  21     -17.555  10.864   8.944  0.00  0.00    +0.144 C 
BRANCH 142 143
ATOM    143  C   UNK A  21     -16.771  11.837   9.873  0.00  0.00    +0.064 C 
ATOM    144  O   UNK A  21     -17.363  12.911  10.157  0.00  0.00    -0.548 OA
ATOM    145  O   UNK A  21     -15.579  11.458  10.105  0.00  0.00    -0.548 OA
ENDBRANCH 142 143
BRANCH 142 146
ATOM    146  C   UNK A  21     -16.501  10.018   8.229  0.00  0.00    +0.184 C 
BRANCH 146 147
ATOM    147  O   UNK A  21     -17.093   9.193   7.211  0.00  0.00    -0.393 OA
ATOM    148  H   UNK A  21     -17.595   9.840   6.652  0.00  0.00    +0.209 HD
ENDBRANCH 146 147
ENDBRANCH 142 146
ENDBRANCH 140 142
ENDBRANCH 137 138
BRANCH 137 149
ATOM    149  CB  LYS A  20     -19.921  13.177   5.958  0.00  0.00    +0.032 C 
BRANCH 149 150
ATOM    150  CG  LYS A  20     -20.340  14.588   5.512  0.00  0.00    +0.007 C 
BRANCH 150 151
ATOM    151  CD  LYS A  20     -19.152  15.533   5.254  0.00  0.00    +0.051 C 
BRANCH 151 152
ATOM    152  CE  LYS A  20     -19.466  16.603   4.208  0.00  0.00    +0.127 C 
BRANCH 152 153
ATOM    153  NZ  LYS A  20     -20.767  16.331   3.568  0.00  0.00    +0.218 N 
ATOM    154  HZ1 LYS A  20     -20.734  15.535   2.921  0.00  0.00    +0.199 HD
ATOM    155  HZ2 LYS A  20     -21.175  17.129   3.070  0.00  0.00    +0.199 HD
ATOM    156  HZ3 LYS A  20     -21.492  16.016   4.254  0.00  0.00    +0.199 HD
ENDBRANCH 152 153
ENDBRANCH 151 152
ENDBRANCH 150 151
ENDBRANCH 149 150
ENDBRANCH 137 149
ENDBRANCH 135 137
ENDBRANCH 132 133
BRANCH 132 157
ATOM    157  CB  ARG A  19     -21.978  16.338  10.640  0.00  0.00    +0.035 C 
BRANCH 157 158
ATOM    158  CG  ARG A  19     -22.382  16.034  12.087  0.00  0.00    +0.039 C 
BRANCH 158 159
ATOM    159  CD  ARG A  19     -23.883  15.822  12.230  0.00  0.00    +0.196 C 
BRANCH 159 160
ATOM    160  NE  ARG A  19     -24.395  16.442  13.457  0.00  0.00    -0.279 N 
ATOM    161  CZ  ARG A  19     -25.679  16.775  13.643  0.00  0.00    +0.341 C 
ATOM    162  NH1 ARG A  19     -26.572  16.730  12.650  0.00  0.00    -0.292 N 
ATOM    163  NH2 ARG A  19     -26.087  17.175  14.851  0.00  0.00    -0.292 N 
ATOM    164  HE  ARG A  19     -23.759  16.527  14.242  0.00  0.00    +0.258 HD
ATOM    165 HH11 ARG A  19     -26.304  16.426  11.722  0.00  0.00    +0.255 HD
ATOM    166 HH12 ARG A  19     -27.549  16.944  12.795  0.00  0.00    +0.255 HD
ATOM    167 HH21 ARG A  19     -25.465  17.128  15.649  0.00  0.00    +0.255 HD
ATOM    168 HH22 ARG A  19     -27.063  17.368  15.033  0.00  0.00    +0.255 HD
ENDBRANCH 159 160
ENDBRANCH 158 159
ENDBRANCH 157 158
ENDBRANCH 132 157
ENDBRANCH 130 132
ENDBRANCH 126 128
ENDBRANCH 124 126
ENDBRANCH 121 122
BRANCH 121 169
ATOM    169  CB  ILE A  17     -13.365  14.377   9.277  0.00  0.00    +0.015 C 
ATOM    170  CG2 ILE A  17     -13.709  14.367  10.773  0.00  0.00    +0.010 C 
BRANCH 169 171
ATOM    171  CG1 ILE A  17     -12.511  13.160   8.881  0.00  0.00    +0.002 C 
ATOM    172  CD1 ILE A  17     -11.059  13.506   8.574  0.00  0.00    +0.004 C 
ENDBRANCH 169 171
ENDBRANCH 121 169
ENDBRANCH 119 121
ENDBRANCH 116 117
BRANCH 116 173
ATOM    173  CB  LYS A  16     -16.322  12.454   4.280  0.00  0.00    +0.032 C 
BRANCH 173 174
ATOM    174  CG  LYS A  16     -16.616  12.551   2.776  0.00  0.00    +0.007 C 
BRANCH 174 175
ATOM    175  CD  LYS A  16     -17.705  13.592   2.490  0.00  0.00    +0.051 C 
BRANCH 175 176
ATOM    176  CE  LYS A  16     -17.186  14.846   1.793  0.00  0.00    +0.127 C 
BRANCH 176 177
ATOM    177  NZ  LYS A  16     -15.905  14.577   1.103  0.00  0.00    +0.218 N 
ATOM    178  HZ1 LYS A  16     -15.151  14.348   1.763  0.00  0.00    +0.199 HD
ATOM    179  HZ2 LYS A  16     -15.597  15.406   0.574  0.00  0.00    +0.199 HD
ATOM    180  HZ3 LYS A  16     -15.988  13.805   0.429  0.00  0.00    +0.199 HD
ENDBRANCH 176 177
ENDBRANCH 175 176
ENDBRANCH 174 175
ENDBRANCH 173 174
ENDBRANCH 116 173
ENDBRANCH 114 116
ENDBRANCH 111 112
BRANCH 111 181
ATOM    181  CB  LYS A  15     -11.021  13.190   2.372  0.00  0.00    +0.032 C 
BRANCH 181 182
ATOM    182  CG  LYS A  15     -11.637  12.139   1.446  0.00  0.00    +0.007 C 
BRANCH 182 183
ATOM    183  CD  LYS A  15     -11.792  12.732   0.038  0.00  0.00    +0.051 C 
BRANCH 183 184
ATOM    184  CE  LYS A  15     -11.466  11.727  -1.055  0.00  0.00    +0.127 C 
BRANCH 184 185
ATOM    185  NZ  LYS A  15     -10.205  11.027  -0.705  0.00  0.00    +0.218 N 
ATOM    186  HZ1 LYS A  15      -9.415  11.685  -0.631  0.00  0.00    +0.199 HD
ATOM    187  HZ2 LYS A  15      -9.942  10.333  -1.418  0.00  0.00    +0.199 HD
ATOM    188  HZ3 LYS A  15     -10.272  10.532   0.195  0.00  0.00    +0.199 HD
ENDBRANCH 184 185
ENDBRANCH 183 184
ENDBRANCH 182 183
ENDBRANCH 181 182
ENDBRANCH 111 181
ENDBRANCH 109 111
ENDBRANCH 106 107
BRANCH 106 189
ATOM    189  CB  LEU A  14      -9.615  10.248   7.183  0.00  0.00    +0.034 C 
BRANCH 189 190
ATOM    190  CG  LEU A  14      -8.163   9.729   7.157  0.00  0.00    -0.015 C 
ATOM    191  CD1 LEU A  14      -7.144  10.800   7.552  0.00  0.00    +0.007 C 
ATOM    192  CD2 LEU A  14      -8.033   8.523   8.092  0.00  0.00    +0.007 C 
ENDBRANCH 189 190
ENDBRANCH 106 189
ENDBRANCH 104 106
ENDBRANCH 101 102
BRANCH 101 193
ATOM    193  CB  ILE A  13      -7.719   7.574   3.769  0.00  0.00    +0.015 C 
ATOM    194  CG2 ILE A  13      -7.195   6.694   4.912  0.00  0.00    +0.010 C 
BRANCH 193 195
ATOM    195  CG1 ILE A  13      -6.954   7.263   2.460  0.00  0.00    +0.002 C 
ATOM    196  CD1 ILE A  13      -6.023   8.384   2.017  0.00  0.00    +0.004 C 
ENDBRANCH 193 195
ENDBRANCH 101 193
ENDBRANCH  99 101
ENDBRANCH   1  97
BRANCH   1 197
ATOM    197  CB  GLN A  12     -12.556   7.684   0.053  0.00  0.00    +0.041 C 
BRANCH 197 198
ATOM    198  CG  GLN A  12     -13.119   8.944   0.700  0.00  0.00    +0.098 C 
BRANCH 198 199
ATOM    199  CD  GLN A  12     -14.272   9.472  -0.122  0.00  0.00    +0.211 C 
ATOM    200  OE1 GLN A  12     -14.748   8.869  -1.077  0.00  0.00    -0.276 OA
ATOM    201  NE2 GLN A  12     -14.785  10.658   0.302  0.00  0.00    -0.329 N 
ATOM    202 HE21 GLN A  12     -14.201  11.300   0.841  0.00  0.00    +0.145 HD
ATOM    203 HE22 GLN A  12     -15.489  11.083  -0.288  0.00  0.00    +0.145 HD
ENDBRANCH 198 199
ENDBRANCH 197 198
ENDBRANCH   1 197
TORSDOF 85
ENDMDL
MODEL 5
REMARK minimizedAffinity -5.05911112
REMARK minimizedRMSD -1
REMARK  Name = crb16.pdb
REMARK  102 active torsions:
REMARK  status: ('A' for Active; 'I' for Inactive)
REMARK    1  A    between atoms: N_1  and  CA_2
REMARK    2  A    between atoms: CA_2  and  C_3
REMARK    3  A    between atoms: CA_2  and  CB_5
REMARK    4  A    between atoms: CB_5  and  CG_6
REMARK    5  A    between atoms: CG_6  and  CD2_7
REMARK    6  A    between atoms: CG_6  and  CD1_8
REMARK    7  A    between atoms: N_9  and  CA_10
REMARK    8  A    between atoms: CA_10  and  C_11
REMARK    9  A    between atoms: CA_10  and  CB_13
REMARK   10  A    between atoms: CB_13  and  CG1_14
REMARK   11  A    between atoms: CB_13  and  CG2_15
REMARK   12  A    between atoms: CG1_14  and  CD1_16
REMARK   13  A    between atoms: N_17  and  CA_18
REMARK   14  A    between atoms: CA_18  and  C_19
REMARK   15  A    between atoms: CA_18  and  CB_21
REMARK   16  A    between atoms: CB_21  and  OG_22
REMARK   17  A    between atoms: N_23  and  CA_24
REMARK   18  A    between atoms: CA_24  and  C_25
REMARK   19  A    between atoms: N_27  and  CA_28
REMARK   20  A    between atoms: CA_28  and  C_29
REMARK   21  A    between atoms: CA_28  and  CB_31
REMARK   22  A    between atoms: CB_31  and  CG_32
REMARK   23  A    between atoms: CG_32  and  CD2_33
REMARK   24  A    between atoms: CG_32  and  CD1_34
REMARK   25  A    between atoms: N_35  and  CA_36
REMARK   26  A    between atoms: CA_36  and  C_37
REMARK   27  A    between atoms: CA_36  and  CB_39
REMARK   28  A    between atoms: N_40  and  CA_41
REMARK   29  A    between atoms: CA_41  and  C_42
REMARK   30  A    between atoms: CA_41  and  CB_44
REMARK   31  A    between atoms: N_45  and  CA_46
REMARK   32  A    between atoms: CA_46  and  C_47
REMARK   33  A    between atoms: CA_46  and  CB_49
REMARK   34  A    between atoms: CB_49  and  CG_50
REMARK   35  A    between atoms: N_53  and  CA_54
REMARK   36  A    between atoms: CA_54  and  C_55
REMARK   37  A    between atoms: CA_54  and  CB_57
REMARK   38  A    between atoms: CB_57  and  CG_58
REMARK   39  A    between atoms: N_64  and  CA_65
REMARK   40  A    between atoms: CA_65  and  C_66
REMARK   41  A    between atoms: CA_65  and  CB_68
REMARK   42  A    between atoms: CB_68  and  CG_69
REMARK   43  A    between atoms: CG_69  and  CD2_70
REMARK   44  A    between atoms: CG_69  and  CD1_71
REMARK   45  A    between atoms: CA_73  and  C_74
REMARK   46  A    between atoms: N_79  and  CA_80
REMARK   47  A    between atoms: CA_80  and  C_81
REMARK   48  A    between atoms: CA_80  and  CB_83
REMARK   49  A    between atoms: CB_83  and  CG_84
REMARK   50  A    between atoms: CG_84  and  CD_85
REMARK   51  A    between atoms: N_88  and  CA_89
REMARK   52  A    between atoms: CA_89  and  C_90
REMARK   53  A    between atoms: CA_89  and  CB_92
REMARK   54  A    between atoms: CB_92  and  CG1_93
REMARK   55  A    between atoms: CB_92  and  CG2_94
REMARK   56  A    between atoms: CG1_93  and  CD1_95
REMARK   57  A    between atoms: N_96  and  CA_97
REMARK   58  A    between atoms: CA_97  and  C_98
REMARK   59  A    between atoms: CA_97  and  CB_100
REMARK   60  A    between atoms: CB_100  and  CG_101
REMARK   61  A    between atoms: CG_101  and  CD1_102
REMARK   62  A    between atoms: CG_101  and  CD2_103
REMARK   63  A    between atoms: N_104  and  CA_105
REMARK   64  A    between atoms: CA_105  and  C_106
REMARK   65  A    between atoms: CA_105  and  CB_108
REMARK   66  A    between atoms: CB_108  and  CG_109
REMARK   67  A    between atoms: CG_109  and  CD_110
REMARK   68  A    between atoms: CD_110  and  CE_111
REMARK   69  A    between atoms: CE_111  and  NZ_112
REMARK   70  A    between atoms: N_113  and  CA_114
REMARK   71  A    between atoms: CA_114  and  C_115
REMARK   72  A    between atoms: CA_114  and  CB_117
REMARK   73  A    between atoms: CB_117  and  CG_118
REMARK   74  A    between atoms: CG_118  and  CD_119
REMARK   75  A    between atoms: CD_119  and  CE_120
REMARK   76  A    between atoms: CE_120  and  NZ_121
REMARK   77  A    between atoms: N_122  and  CA_123
REMARK   78  A    between atoms: CA_123  and  C_124
REMARK   79  A    between atoms: CA_123  and  CB_126
REMARK   80  A    between atoms: CB_126  and  CG1_127
REMARK   81  A    between atoms: CB_126  and  CG2_128
REMARK   82  A    between atoms: CG1_127  and  CD1_129
REMARK   83  A    between atoms: N_130  and  CA_131
REMARK   84  A    between atoms: CA_131  and  C_132
REMARK   85  A    between atoms: CA_131  and  CB_134
REMARK   86  A    between atoms: N_135  and  CA_136
REMARK   87  A    between atoms: CA_136  and  C_137
REMARK   88  A    between atoms: CA_136  and  CB_139
REMARK   89  A    between atoms: CB_139  and  CG_140
REMARK   90  A    between atoms: CG_140  and  CD_141
REMARK   91  A    between atoms: CD_141  and  NE_142
REMARK   92  A    between atoms: N_146  and  CA_147
REMARK   93  A    between atoms: CA_147  and  C_148
REMARK   94  A    between atoms: CA_147  and  CB_150
REMARK   95  A    between atoms: CB_150  and  CG_151
REMARK   96  A    between atoms: CG_151  and  CD_152
REMARK   97  A    between atoms: CD_152  and  CE_153
REMARK   98  A    between atoms: CE_153  and  NZ_154
REMARK   99  A    between atoms: N_155  and  C_156
REMARK  100  A    between atoms: C_156  and  C_157
REMARK  101  A    between atoms: C_156  and  C_159
REMARK  102  A    between atoms: C_159  and  O_160
REMARK                            x       y       z     vdW  Elec       q    Type
REMARK                         _______ _______ _______ _____ _____    ______ ____
ROOT
ATOM      1  CA  GLN A  12     -11.022   8.063  -0.568  0.00  0.00    +0.159 C 
ENDROOT
BRANCH   1   4
ATOM      2  C   PRO A  11      -9.345   6.658  -1.710  0.00  0.00    +0.234 C 
ATOM      3  O   PRO A  11      -8.449   7.459  -1.442  0.00  0.00    -0.274 OA
ATOM      4  N   GLN A  12     -10.664   6.919  -1.403  0.00  0.00    -0.302 N 
ATOM      5  H   GLN A  12     -11.299   6.123  -1.424  0.00  0.00    +0.149 HD
BRANCH   2   9
ATOM      6  C   LEU A  10      -9.796   5.994  -4.759  0.00  0.00    +0.236 C 
ATOM      7  O   LEU A  10     -10.952   6.105  -4.325  0.00  0.00    -0.274 OA
ATOM      8  N   PRO A  11      -8.773   5.625  -3.910  0.00  0.00    -0.288 N 
ATOM      9  CA  PRO A  11      -9.060   5.365  -2.500  0.00  0.00    +0.162 C 
ATOM     10  CB  PRO A  11      -7.817   4.654  -1.966  0.00  0.00    +0.033 C 
ATOM     11  CG  PRO A  11      -6.710   5.101  -2.912  0.00  0.00    +0.021 C 
ATOM     12  CD  PRO A  11      -7.423   5.191  -4.250  0.00  0.00    +0.109 C 
BRANCH   6  13
ATOM     13  CA  LEU A  10      -9.505   6.273  -6.262  0.00  0.00    +0.159 C 
BRANCH  13  16
ATOM     14  C   PHE A   9      -8.929   4.396  -7.753  0.00  0.00    +0.234 C 
ATOM     15  O   PHE A   9      -7.727   4.605  -7.569  0.00  0.00    -0.274 OA
ATOM     16  N   LEU A  10      -9.891   5.155  -7.123  0.00  0.00    -0.302 N 
ATOM     17  H   LEU A  10     -10.850   5.109  -7.470  0.00  0.00    +0.149 HD
BRANCH  14  18
ATOM     18  CA  PHE A   9      -9.420   3.330  -8.749  0.00  0.00    +0.163 C 
BRANCH  18  21
ATOM     19  C   ASN A   8     -10.800   3.378 -10.813  0.00  0.00    +0.234 C 
ATOM     20  O   ASN A   8     -11.280   2.269 -10.577  0.00  0.00    -0.274 OA
ATOM     21  N   PHE A   9      -9.842   3.949 -10.005  0.00  0.00    -0.302 N 
ATOM     22  H   PHE A   9      -9.645   4.937 -10.155  0.00  0.00    +0.149 HD
BRANCH  19  23
ATOM     23  CA  ASN A   8     -11.149   4.162 -12.093  0.00  0.00    +0.168 C 
BRANCH  23  26
ATOM     24  C   ALA A   7     -10.428   6.407 -12.881  0.00  0.00    +0.234 C 
ATOM     25  O   ALA A   7     -11.579   6.825 -12.972  0.00  0.00    -0.274 OA
ATOM     26  N   ASN A   8     -10.117   5.142 -12.430  0.00  0.00    -0.302 N 
ATOM     27  H   ASN A   8      -9.135   4.887 -12.387  0.00  0.00    +0.149 HD
BRANCH  24  28
ATOM     28  CA  ALA A   7      -9.213   7.212 -13.381  0.00  0.00    +0.156 C 
ATOM     29  CB  ALA A   7      -8.386   7.564 -12.144  0.00  0.00    +0.037 C 
BRANCH  28  32
ATOM     30  C   ALA A   6      -9.335   8.564 -15.462  0.00  0.00    +0.234 C 
ATOM     31  O   ALA A   6      -9.147   7.583 -16.188  0.00  0.00    -0.274 OA
ATOM     32  N   ALA A   7      -9.609   8.428 -14.109  0.00  0.00    -0.303 N 
ATOM     33  H   ALA A   7      -9.509   9.295 -13.580  0.00  0.00    +0.149 HD
BRANCH  30  34
ATOM     34  CA  ALA A   6      -9.560   9.986 -16.020  0.00  0.00    +0.156 C 
ATOM     35  CB  ALA A   6      -9.534  11.035 -14.913  0.00  0.00    +0.037 C 
BRANCH  34  38
ATOM     36  C   LEU A   5     -10.747  10.086 -18.161  0.00  0.00    +0.234 C 
ATOM     37  O   LEU A   5      -9.718   9.774 -18.757  0.00  0.00    -0.274 OA
ATOM     38  N   ALA A   6     -10.805  10.100 -16.772  0.00  0.00    -0.303 N 
ATOM     39  H   ALA A   6     -11.551  10.643 -16.344  0.00  0.00    +0.149 HD
BRANCH  36  40
ATOM     40  CA  LEU A   5     -11.959  10.708 -18.891  0.00  0.00    +0.159 C 
BRANCH  40  43
ATOM     41  C   GLY A   4     -14.035  11.667 -17.951  0.00  0.00    +0.231 C 
ATOM     42  O   GLY A   4     -14.741  11.136 -18.802  0.00  0.00    -0.274 OA
ATOM     43  N   LEU A   5     -12.657  11.620 -17.983  0.00  0.00    -0.303 N 
ATOM     44  H   LEU A   5     -12.163  11.932 -17.159  0.00  0.00    +0.149 HD
BRANCH  41  45
ATOM     45  CA  GLY A   4     -14.639  12.494 -16.811  0.00  0.00    +0.200 C 
BRANCH  45  48
ATOM     46  C   SER A   3     -13.101  12.714 -14.889  0.00  0.00    +0.236 C 
ATOM     47  O   SER A   3     -12.416  13.555 -15.458  0.00  0.00    -0.274 OA
ATOM     48  N   GLY A   4     -14.182  12.099 -15.485  0.00  0.00    -0.305 N 
ATOM     49  H   GLY A   4     -14.825  11.600 -14.883  0.00  0.00    +0.149 HD
BRANCH  46  50
ATOM     50  CA  SER A   3     -12.753  12.193 -13.491  0.00  0.00    +0.184 C 
BRANCH  50  53
ATOM     51  C   ILE A   2     -13.093  13.441 -11.395  0.00  0.00    +0.234 C 
ATOM     52  O   ILE A   2     -11.886  13.674 -11.323  0.00  0.00    -0.274 OA
ATOM     53  N   SER A   3     -13.641  12.799 -12.490  0.00  0.00    -0.301 N 
ATOM     54  H   SER A   3     -14.483  12.256 -12.318  0.00  0.00    +0.150 HD
BRANCH  51  55
ATOM     55  CA  ILE A   2     -14.097  13.799 -10.271  0.00  0.00    +0.162 C 
BRANCH  55  58
ATOM     56  C   LEU A   1     -13.707  12.240  -8.404  0.00  0.00    +0.262 C 
ATOM     57  O   LEU A   1     -14.268  11.321  -9.003  0.00  0.00    -0.270 OA
ATOM     58  N   ILE A   2     -13.516  13.490  -8.950  0.00  0.00    -0.299 N 
ATOM     59  H   ILE A   2     -13.236  14.267  -8.362  0.00  0.00    +0.150 HD
BRANCH  56  60
ATOM     60  CA  LEU A   1     -13.098  11.971  -7.015  0.00  0.00    +0.148 C 
BRANCH  60  61
ATOM     61  N   LEU A   1     -12.524  10.583  -6.997  0.00  0.00    +0.227 N 
ATOM     62  H1  LEU A   1     -13.257   9.877  -7.143  0.00  0.00    +0.200 HD
ATOM     63  H2  LEU A   1     -12.025  10.341  -6.132  0.00  0.00    +0.200 HD
ATOM     64  H3  LEU A   1     -11.877  10.463  -7.794  0.00  0.00    +0.200 HD
ENDBRANCH  60  61
BRANCH  60  65
ATOM     65  CB  LEU A   1     -11.984  13.004  -6.790  0.00  0.00    +0.067 C 
BRANCH  65  66
ATOM     66  CG  LEU A   1     -10.669  12.472  -6.195  0.00  0.00    -0.011 C 
ATOM     67  CD2 LEU A   1      -9.530  12.692  -7.196  0.00  0.00    +0.007 C 
ATOM     68  CD1 LEU A   1     -10.330  13.144  -4.866  0.00  0.00    +0.007 C 
ENDBRANCH  65  66
ENDBRANCH  60  65
ENDBRANCH  56  60
ENDBRANCH  55  58
BRANCH  55  69
ATOM     69  CB  ILE A   2     -14.591  15.262 -10.404  0.00  0.00    +0.015 C 
ATOM     70  CG2 ILE A   2     -16.086  15.338 -10.063  0.00  0.00    +0.010 C 
BRANCH  69  71
ATOM     71  CG1 ILE A   2     -13.768  16.276  -9.579  0.00  0.00    +0.002 C 
ATOM     72  CD1 ILE A   2     -12.974  17.258 -10.432  0.00  0.00    +0.004 C 
ENDBRANCH  69  71
ENDBRANCH  55  69
ENDBRANCH  51  55
ENDBRANCH  50  53
BRANCH  50  73
ATOM     73  CB  SER A   3     -12.889  10.670 -13.467  0.00  0.00    +0.187 C 
BRANCH  73  74
ATOM     74  OG  SER A   3     -14.184  10.328 -12.957  0.00  0.00    -0.393 OA
ATOM     75  H   SER A   3     -14.155   9.375 -12.736  0.00  0.00    +0.209 HD
ENDBRANCH  73  74
ENDBRANCH  50  73
ENDBRANCH  46  50
ENDBRANCH  45  48
ENDBRANCH  41  45
ENDBRANCH  40  43
BRANCH  40  76
ATOM     76  CB  LEU A   5     -11.496  11.487 -20.135  0.00  0.00    +0.034 C 
BRANCH  76  77
ATOM     77  CG  LEU A   5     -11.220  12.987 -19.914  0.00  0.00    -0.015 C 
ATOM     78  CD2 LEU A   5      -9.727  13.294 -19.796  0.00  0.00    +0.007 C 
ATOM     79  CD1 LEU A   5     -11.828  13.797 -21.063  0.00  0.00    +0.007 C 
ENDBRANCH  76  77
ENDBRANCH  40  76
ENDBRANCH  36  40
ENDBRANCH  34  38
ENDBRANCH  30  34
ENDBRANCH  28  32
ENDBRANCH  24  28
ENDBRANCH  23  26
BRANCH  23  80
ATOM     80  CB  ASN A   8     -11.364   3.171 -13.239  0.00  0.00    +0.127 C 
BRANCH  80  81
ATOM     81  CG  ASN A   8     -10.048   2.604 -13.719  0.00  0.00    +0.213 C 
ATOM     82  OD1 ASN A   8      -9.236   3.217 -14.393  0.00  0.00    -0.276 OA
ATOM     83  ND2 ASN A   8      -9.827   1.306 -13.361  0.00  0.00    -0.329 N 
ATOM     84 HD21 ASN A   8     -10.469   0.747 -12.817  0.00  0.00    +0.145 HD
ATOM     85 HD22 ASN A   8      -8.962   0.874 -13.666  0.00  0.00    +0.145 HD
ENDBRANCH  80  81
ENDBRANCH  23  80
ENDBRANCH  19  23
ENDBRANCH  18  21
BRANCH  18  86
ATOM     86  CB  PHE A   9      -8.312   2.295  -8.955  0.00  0.00    +0.067 C 
BRANCH  86  87
ATOM     87  CG  PHE A   9      -8.720   0.921  -8.485  0.00  0.00    -0.045 A 
ATOM     88  CD2 PHE A   9      -9.541   0.764  -7.360  0.00  0.00    +0.003 A 
ATOM     89  CD1 PHE A   9      -8.251  -0.221  -9.149  0.00  0.00    +0.003 A 
ATOM     90  CE2 PHE A   9      -9.894  -0.509  -6.912  0.00  0.00    +0.000 A 
ATOM     91  CE1 PHE A   9      -8.607  -1.494  -8.701  0.00  0.00    +0.000 A 
ATOM     92  CZ  PHE A   9      -9.428  -1.637  -7.583  0.00  0.00    +0.000 A 
ENDBRANCH  86  87
ENDBRANCH  18  86
ENDBRANCH  14  18
ENDBRANCH  13  16
BRANCH  13  93
ATOM     93  CB  LEU A  10     -10.167   7.592  -6.681  0.00  0.00    +0.034 C 
BRANCH  93  94
ATOM     94  CG  LEU A  10      -9.314   8.853  -6.435  0.00  0.00    -0.015 C 
ATOM     95  CD2 LEU A  10      -9.560   9.368  -5.015  0.00  0.00    +0.007 C 
ATOM     96  CD1 LEU A  10      -7.816   8.606  -6.633  0.00  0.00    +0.007 C 
ENDBRANCH  93  94
ENDBRANCH  13  93
ENDBRANCH   6  13
ENDBRANCH   2   9
ENDBRANCH   1   4
BRANCH   1  97
ATOM     97  C   GLN A  12     -11.851   7.608   0.650  0.00  0.00    +0.234 C 
ATOM     98  O   GLN A  12     -13.065   7.794   0.714  0.00  0.00    -0.274 OA
ATOM     99  N   ILE A  13     -11.162   6.900   1.609  0.00  0.00    -0.302 N 
ATOM    100  H   ILE A  13     -10.192   6.639   1.430  0.00  0.00    +0.149 HD
BRANCH  99 101
ATOM    101  CA  ILE A  13     -11.807   6.472   2.850  0.00  0.00    +0.162 C 
BRANCH 101 102
ATOM    102  C   ILE A  13     -11.230   7.360   3.976  0.00  0.00    +0.234 C 
ATOM    103  O   ILE A  13     -11.177   6.974   5.147  0.00  0.00    -0.274 OA
ATOM    104  N   LEU A  14     -10.771   8.609   3.598  0.00  0.00    -0.302 N 
ATOM    105  H   LEU A  14     -10.579   8.757   2.604  0.00  0.00    +0.149 HD
BRANCH 104 106
ATOM    106  CA  LEU A  14     -10.124   9.477   4.586  0.00  0.00    +0.159 C 
BRANCH 106 107
ATOM    107  C   LEU A  14     -10.436  10.951   4.219  0.00  0.00    +0.234 C 
ATOM    108  O   LEU A  14      -9.929  11.908   4.803  0.00  0.00    -0.274 OA
ATOM    109  N   LYS A  15     -11.312  11.121   3.170  0.00  0.00    -0.302 N 
ATOM    110  H   LYS A  15     -11.625  10.283   2.677  0.00  0.00    +0.149 HD
BRANCH 109 111
ATOM    111  CA  LYS A  15     -11.660  12.433   2.612  0.00  0.00    +0.159 C 
BRANCH 111 112
ATOM    112  C   LYS A  15     -13.182  12.730   2.696  0.00  0.00    +0.234 C 
ATOM    113  O   LYS A  15     -13.843  13.028   1.699  0.00  0.00    -0.274 OA
ATOM    114  N   LYS A  16     -13.756  12.585   3.940  0.00  0.00    -0.302 N 
ATOM    115  H   LYS A  16     -13.151  12.320   4.713  0.00  0.00    +0.149 HD
BRANCH 114 116
ATOM    116  CA  LYS A  16     -15.120  13.002   4.227  0.00  0.00    +0.159 C 
BRANCH 116 117
ATOM    117  C   LYS A  16     -15.290  13.258   5.739  0.00  0.00    +0.234 C 
ATOM    118  O   LYS A  16     -16.337  12.950   6.314  0.00  0.00    -0.274 OA
ATOM    119  N   ILE A  17     -14.166  13.669   6.428  0.00  0.00    -0.302 N 
ATOM    120  H   ILE A  17     -13.350  13.980   5.904  0.00  0.00    +0.149 HD
BRANCH 119 121
ATOM    121  CA  ILE A  17     -14.232  13.907   7.872  0.00  0.00    +0.162 C 
BRANCH 121 122
ATOM    122  C   ILE A  17     -14.753  15.326   8.173  0.00  0.00    +0.234 C 
ATOM    123  O   ILE A  17     -14.006  16.303   8.121  0.00  0.00    -0.274 OA
ATOM    124  N   ALA A  18     -16.076  15.432   8.530  0.00  0.00    -0.303 N 
ATOM    125  H   ALA A  18     -16.669  14.600   8.526  0.00  0.00    +0.149 HD
BRANCH 124 126
ATOM    126  CA  ALA A  18     -16.688  16.693   8.967  0.00  0.00    +0.156 C 
ATOM    127  CB  ALA A  18     -17.325  17.423   7.792  0.00  0.00    +0.037 C 
BRANCH 126 128
ATOM    128  C   ALA A  18     -17.720  16.452  10.107  0.00  0.00    +0.234 C 
ATOM    129  O   ALA A  18     -17.428  16.060  11.233  0.00  0.00    -0.274 OA
ATOM    130  N   ARG A  19     -19.030  16.557   9.692  0.00  0.00    -0.302 N 
ATOM    131  H   ARG A  19     -19.219  17.029   8.818  0.00  0.00    +0.149 HD
BRANCH 130 132
ATOM    132  CA  ARG A  19     -20.154  15.904  10.347  0.00  0.00    +0.159 C 
BRANCH 132 133
ATOM    133  C   ARG A  19     -20.782  14.912   9.332  0.00  0.00    +0.234 C 
ATOM    134  O   ARG A  19     -21.992  14.715   9.241  0.00  0.00    -0.274 OA
ATOM    135  N   LYS A  20     -19.876  14.159   8.619  0.00  0.00    -0.302 N 
ATOM    136  H   LYS A  20     -18.889  14.419   8.595  0.00  0.00    +0.149 HD
BRANCH 135 137
ATOM    137  CA  LYS A  20     -20.287  13.027   7.800  0.00  0.00    +0.159 C 
BRANCH 137 138
ATOM    138  C   LYS A  20     -19.715  11.706   8.360  0.00  0.00    +0.234 C 
ATOM    139  O   LYS A  20     -20.391  10.957   9.068  0.00  0.00    -0.274 OA
ATOM    140  N   UNK A  21     -18.400  11.474   8.049  0.00  0.00    -0.304 N 
ATOM    141  H   UNK A  21     -17.879  12.298   7.762  0.00  0.00    +0.149 HD
BRANCH 140 142
ATOM    142  C   UNK A  21     -17.547  10.653   8.927  0.00  0.00    +0.144 C 
BRANCH 142 143
ATOM    143  C   UNK A  21     -16.388  11.525   9.491  0.00  0.00    +0.064 C 
ATOM    144  O   UNK A  21     -15.269  10.955   9.569  0.00  0.00    -0.548 OA
ATOM    145  O   UNK A  21     -16.776  12.658   9.919  0.00  0.00    -0.548 OA
ENDBRANCH 142 143
BRANCH 142 146
ATOM    146  C   UNK A  21     -16.885   9.536   8.117  0.00  0.00    +0.184 C 
BRANCH 146 147
ATOM    147  O   UNK A  21     -16.296  10.044   6.908  0.00  0.00    -0.393 OA
ATOM    148  H   UNK A  21     -15.702  10.771   7.227  0.00  0.00    +0.209 HD
ENDBRANCH 146 147
ENDBRANCH 142 146
ENDBRANCH 140 142
ENDBRANCH 137 138
BRANCH 137 149
ATOM    149  CB  LYS A  20     -19.900  13.241   6.327  0.00  0.00    +0.032 C 
BRANCH 149 150
ATOM    150  CG  LYS A  20     -20.595  14.461   5.698  0.00  0.00    +0.007 C 
BRANCH 150 151
ATOM    151  CD  LYS A  20     -19.635  15.617   5.366  0.00  0.00    +0.051 C 
BRANCH 151 152
ATOM    152  CE  LYS A  20     -20.094  16.440   4.163  0.00  0.00    +0.127 C 
BRANCH 152 153
ATOM    153  NZ  LYS A  20     -21.519  16.183   3.879  0.00  0.00    +0.218 N 
ATOM    154  HZ1 LYS A  20     -21.683  15.258   3.464  0.00  0.00    +0.199 HD
ATOM    155  HZ2 LYS A  20     -21.971  16.884   3.282  0.00  0.00    +0.199 HD
ATOM    156  HZ3 LYS A  20     -22.097  16.129   4.751  0.00  0.00    +0.199 HD
ENDBRANCH 152 153
ENDBRANCH 151 152
ENDBRANCH 150 151
ENDBRANCH 149 150
ENDBRANCH 137 149
ENDBRANCH 135 137
ENDBRANCH 132 133
BRANCH 132 157
ATOM    157  CB  ARG A  19     -21.156  16.951  10.847  0.00  0.00    +0.035 C 
BRANCH 157 158
ATOM    158  CG  ARG A  19     -21.401  16.888  12.359  0.00  0.00    +0.039 C 
BRANCH 158 159
ATOM    159  CD  ARG A  19     -22.837  16.506  12.691  0.00  0.00    +0.196 C 
BRANCH 159 160
ATOM    160  NE  ARG A  19     -23.238  15.280  11.992  0.00  0.00    -0.279 N 
ATOM    161  CZ  ARG A  19     -24.470  15.068  11.510  0.00  0.00    +0.341 C 
ATOM    162  NH1 ARG A  19     -25.488  15.889  11.784  0.00  0.00    -0.292 N 
ATOM    163  NH2 ARG A  19     -24.700  14.001  10.739  0.00  0.00    -0.292 N 
ATOM    164  HE  ARG A  19     -22.515  14.604  11.775  0.00  0.00    +0.258 HD
ATOM    165 HH11 ARG A  19     -25.352  16.712  12.358  0.00  0.00    +0.255 HD
ATOM    166 HH12 ARG A  19     -26.409  15.754  11.391  0.00  0.00    +0.255 HD
ATOM    167 HH21 ARG A  19     -23.937  13.412  10.430  0.00  0.00    +0.255 HD
ATOM    168 HH22 ARG A  19     -25.604  13.854  10.310  0.00  0.00    +0.255 HD
ENDBRANCH 159 160
ENDBRANCH 158 159
ENDBRANCH 157 158
ENDBRANCH 132 157
ENDBRANCH 130 132
ENDBRANCH 126 128
ENDBRANCH 124 126
ENDBRANCH 121 122
BRANCH 121 169
ATOM    169  CB  ILE A  17     -12.936  13.578   8.647  0.00  0.00    +0.015 C 
ATOM    170  CG2 ILE A  17     -11.726  14.159   7.902  0.00  0.00    +0.010 C 
BRANCH 169 171
ATOM    171  CG1 ILE A  17     -12.963  14.017  10.121  0.00  0.00    +0.002 C 
ATOM    172  CD1 ILE A  17     -12.403  12.974  11.080  0.00  0.00    +0.004 C 
ENDBRANCH 169 171
ENDBRANCH 121 169
ENDBRANCH 119 121
ENDBRANCH 116 117
BRANCH 116 173
ATOM    173  CB  LYS A  16     -16.128  11.949   3.741  0.00  0.00    +0.032 C 
BRANCH 173 174
ATOM    174  CG  LYS A  16     -17.347  12.555   3.031  0.00  0.00    +0.007 C 
BRANCH 174 175
ATOM    175  CD  LYS A  16     -17.298  14.088   3.054  0.00  0.00    +0.051 C 
BRANCH 175 176
ATOM    176  CE  LYS A  16     -17.386  14.725   1.671  0.00  0.00    +0.127 C 
BRANCH 176 177
ATOM    177  NZ  LYS A  16     -16.041  14.880   1.073  0.00  0.00    +0.218 N 
ATOM    178  HZ1 LYS A  16     -15.457  15.542   1.598  0.00  0.00    +0.199 HD
ATOM    179  HZ2 LYS A  16     -16.112  15.241   0.110  0.00  0.00    +0.199 HD
ATOM    180  HZ3 LYS A  16     -15.541  13.982   1.019  0.00  0.00    +0.199 HD
ENDBRANCH 176 177
ENDBRANCH 175 176
ENDBRANCH 174 175
ENDBRANCH 173 174
ENDBRANCH 116 173
ENDBRANCH 114 116
ENDBRANCH 111 112
BRANCH 111 181
ATOM    181  CB  LYS A  15     -11.166  12.477   1.159  0.00  0.00    +0.032 C 
BRANCH 181 182
ATOM    182  CG  LYS A  15      -9.753  11.953   0.894  0.00  0.00    +0.007 C 
BRANCH 182 183
ATOM    183  CD  LYS A  15      -8.728  12.970   1.419  0.00  0.00    +0.051 C 
BRANCH 183 184
ATOM    184  CE  LYS A  15      -7.679  13.328   0.379  0.00  0.00    +0.127 C 
BRANCH 184 185
ATOM    185  NZ  LYS A  15      -8.083  12.755  -0.929  0.00  0.00    +0.218 N 
ATOM    186  HZ1 LYS A  15      -8.153  11.727  -0.886  0.00  0.00    +0.199 HD
ATOM    187  HZ2 LYS A  15      -7.402  12.972  -1.668  0.00  0.00    +0.199 HD
ATOM    188  HZ3 LYS A  15      -8.998  13.107  -1.242  0.00  0.00    +0.199 HD
ENDBRANCH 184 185
ENDBRANCH 183 184
ENDBRANCH 182 183
ENDBRANCH 181 182
ENDBRANCH 111 181
ENDBRANCH 109 111
ENDBRANCH 106 107
BRANCH 106 189
ATOM    189  CB  LEU A  14      -8.613   9.224   4.618  0.00  0.00    +0.034 C 
BRANCH 189 190
ATOM    190  CG  LEU A  14      -7.956   9.018   3.238  0.00  0.00    -0.015 C 
ATOM    191  CD1 LEU A  14      -6.901  10.079   2.921  0.00  0.00    +0.007 C 
ATOM    192  CD2 LEU A  14      -7.322   7.625   3.176  0.00  0.00    +0.007 C 
ENDBRANCH 189 190
ENDBRANCH 106 189
ENDBRANCH 104 106
ENDBRANCH 101 102
BRANCH 101 193
ATOM    193  CB  ILE A  13     -11.601   4.961   3.109  0.00  0.00    +0.015 C 
ATOM    194  CG2 ILE A  13     -12.620   4.117   2.329  0.00  0.00    +0.010 C 
BRANCH 193 195
ATOM    195  CG1 ILE A  13     -10.160   4.553   2.721  0.00  0.00    +0.002 C 
ATOM    196  CD1 ILE A  13     -10.098   3.387   1.744  0.00  0.00    +0.004 C 
ENDBRANCH 193 195
ENDBRANCH 101 193
ENDBRANCH  99 101
ENDBRANCH   1  97
BRANCH   1 197
ATOM    197  CB  GLN A  12     -11.820   9.119  -1.331  0.00  0.00    +0.041 C 
BRANCH 197 198
ATOM    198  CG  GLN A  12     -12.452   8.569  -2.604  0.00  0.00    +0.098 C 
BRANCH 198 199
ATOM    199  CD  GLN A  12     -13.240   9.655  -3.298  0.00  0.00    +0.211 C 
ATOM    200  OE1 GLN A  12     -12.717  10.558  -3.943  0.00  0.00    -0.276 OA
ATOM    201  NE2 GLN A  12     -14.592   9.539  -3.198  0.00  0.00    -0.329 N 
ATOM    202 HE21 GLN A  12     -15.000   9.029  -2.413  0.00  0.00    +0.145 HD
ATOM    203 HE22 GLN A  12     -15.139  10.307  -3.566  0.00  0.00    +0.145 HD
ENDBRANCH 198 199
ENDBRANCH 197 198
ENDBRANCH   1 197
TORSDOF 85
ENDMDL
MODEL 6
REMARK minimizedAffinity -5.00740051
REMARK minimizedRMSD -1
REMARK  Name = crb16.pdb
REMARK  102 active torsions:
REMARK  status: ('A' for Active; 'I' for Inactive)
REMARK    1  A    between atoms: N_1  and  CA_2
REMARK    2  A    between atoms: CA_2  and  C_3
REMARK    3  A    between atoms: CA_2  and  CB_5
REMARK    4  A    between atoms: CB_5  and  CG_6
REMARK    5  A    between atoms: CG_6  and  CD2_7
REMARK    6  A    between atoms: CG_6  and  CD1_8
REMARK    7  A    between atoms: N_9  and  CA_10
REMARK    8  A    between atoms: CA_10  and  C_11
REMARK    9  A    between atoms: CA_10  and  CB_13
REMARK   10  A    between atoms: CB_13  and  CG1_14
REMARK   11  A    between atoms: CB_13  and  CG2_15
REMARK   12  A    between atoms: CG1_14  and  CD1_16
REMARK   13  A    between atoms: N_17  and  CA_18
REMARK   14  A    between atoms: CA_18  and  C_19
REMARK   15  A    between atoms: CA_18  and  CB_21
REMARK   16  A    between atoms: CB_21  and  OG_22
REMARK   17  A    between atoms: N_23  and  CA_24
REMARK   18  A    between atoms: CA_24  and  C_25
REMARK   19  A    between atoms: N_27  and  CA_28
REMARK   20  A    between atoms: CA_28  and  C_29
REMARK   21  A    between atoms: CA_28  and  CB_31
REMARK   22  A    between atoms: CB_31  and  CG_32
REMARK   23  A    between atoms: CG_32  and  CD2_33
REMARK   24  A    between atoms: CG_32  and  CD1_34
REMARK   25  A    between atoms: N_35  and  CA_36
REMARK   26  A    between atoms: CA_36  and  C_37
REMARK   27  A    between atoms: CA_36  and  CB_39
REMARK   28  A    between atoms: N_40  and  CA_41
REMARK   29  A    between atoms: CA_41  and  C_42
REMARK   30  A    between atoms: CA_41  and  CB_44
REMARK   31  A    between atoms: N_45  and  CA_46
REMARK   32  A    between atoms: CA_46  and  C_47
REMARK   33  A    between atoms: CA_46  and  CB_49
REMARK   34  A    between atoms: CB_49  and  CG_50
REMARK   35  A    between atoms: N_53  and  CA_54
REMARK   36  A    between atoms: CA_54  and  C_55
REMARK   37  A    between atoms: CA_54  and  CB_57
REMARK   38  A    between atoms: CB_57  and  CG_58
REMARK   39  A    between atoms: N_64  and  CA_65
REMARK   40  A    between atoms: CA_65  and  C_66
REMARK   41  A    between atoms: CA_65  and  CB_68
REMARK   42  A    between atoms: CB_68  and  CG_69
REMARK   43  A    between atoms: CG_69  and  CD2_70
REMARK   44  A    between atoms: CG_69  and  CD1_71
REMARK   45  A    between atoms: CA_73  and  C_74
REMARK   46  A    between atoms: N_79  and  CA_80
REMARK   47  A    between atoms: CA_80  and  C_81
REMARK   48  A    between atoms: CA_80  and  CB_83
REMARK   49  A    between atoms: CB_83  and  CG_84
REMARK   50  A    between atoms: CG_84  and  CD_85
REMARK   51  A    between atoms: N_88  and  CA_89
REMARK   52  A    between atoms: CA_89  and  C_90
REMARK   53  A    between atoms: CA_89  and  CB_92
REMARK   54  A    between atoms: CB_92  and  CG1_93
REMARK   55  A    between atoms: CB_92  and  CG2_94
REMARK   56  A    between atoms: CG1_93  and  CD1_95
REMARK   57  A    between atoms: N_96  and  CA_97
REMARK   58  A    between atoms: CA_97  and  C_98
REMARK   59  A    between atoms: CA_97  and  CB_100
REMARK   60  A    between atoms: CB_100  and  CG_101
REMARK   61  A    between atoms: CG_101  and  CD1_102
REMARK   62  A    between atoms: CG_101  and  CD2_103
REMARK   63  A    between atoms: N_104  and  CA_105
REMARK   64  A    between atoms: CA_105  and  C_106
REMARK   65  A    between atoms: CA_105  and  CB_108
REMARK   66  A    between atoms: CB_108  and  CG_109
REMARK   67  A    between atoms: CG_109  and  CD_110
REMARK   68  A    between atoms: CD_110  and  CE_111
REMARK   69  A    between atoms: CE_111  and  NZ_112
REMARK   70  A    between atoms: N_113  and  CA_114
REMARK   71  A    between atoms: CA_114  and  C_115
REMARK   72  A    between atoms: CA_114  and  CB_117
REMARK   73  A    between atoms: CB_117  and  CG_118
REMARK   74  A    between atoms: CG_118  and  CD_119
REMARK   75  A    between atoms: CD_119  and  CE_120
REMARK   76  A    between atoms: CE_120  and  NZ_121
REMARK   77  A    between atoms: N_122  and  CA_123
REMARK   78  A    between atoms: CA_123  and  C_124
REMARK   79  A    between atoms: CA_123  and  CB_126
REMARK   80  A    between atoms: CB_126  and  CG1_127
REMARK   81  A    between atoms: CB_126  and  CG2_128
REMARK   82  A    between atoms: CG1_127  and  CD1_129
REMARK   83  A    between atoms: N_130  and  CA_131
REMARK   84  A    between atoms: CA_131  and  C_132
REMARK   85  A    between atoms: CA_131  and  CB_134
REMARK   86  A    between atoms: N_135  and  CA_136
REMARK   87  A    between atoms: CA_136  and  C_137
REMARK   88  A    between atoms: CA_136  and  CB_139
REMARK   89  A    between atoms: CB_139  and  CG_140
REMARK   90  A    between atoms: CG_140  and  CD_141
REMARK   91  A    between atoms: CD_141  and  NE_142
REMARK   92  A    between atoms: N_146  and  CA_147
REMARK   93  A    between atoms: CA_147  and  C_148
REMARK   94  A    between atoms: CA_147  and  CB_150
REMARK   95  A    between atoms: CB_150  and  CG_151
REMARK   96  A    between atoms: CG_151  and  CD_152
REMARK   97  A    between atoms: CD_152  and  CE_153
REMARK   98  A    between atoms: CE_153  and  NZ_154
REMARK   99  A    between atoms: N_155  and  C_156
REMARK  100  A    between atoms: C_156  and  C_157
REMARK  101  A    between atoms: C_156  and  C_159
REMARK  102  A    between atoms: C_159  and  O_160
REMARK                            x       y       z     vdW  Elec       q    Type
REMARK                         _______ _______ _______ _____ _____    ______ ____
ROOT
ATOM      1  CA  GLN A  12      -9.962   7.435   4.635  0.00  0.00    +0.159 C 
ENDROOT
BRANCH   1   4
ATOM      2  C   PRO A  11      -9.375   5.861   6.443  0.00  0.00    +0.234 C 
ATOM      3  O   PRO A  11      -8.343   5.529   5.860  0.00  0.00    -0.274 OA
ATOM      4  N   GLN A  12     -10.286   6.725   5.870  0.00  0.00    -0.302 N 
ATOM      5  H   GLN A  12     -10.971   7.141   6.497  0.00  0.00    +0.149 HD
BRANCH   2   9
ATOM      6  C   LEU A  10      -9.823   7.239   9.244  0.00  0.00    +0.236 C 
ATOM      7  O   LEU A  10      -8.606   7.381   9.056  0.00  0.00    -0.274 OA
ATOM      8  N   PRO A  11     -10.495   6.190   8.651  0.00  0.00    -0.288 N 
ATOM      9  CA  PRO A  11      -9.764   5.249   7.804  0.00  0.00    +0.162 C 
ATOM     10  CB  PRO A  11     -10.708   4.060   7.624  0.00  0.00    +0.033 C 
ATOM     11  CG  PRO A  11     -12.089   4.657   7.854  0.00  0.00    +0.021 C 
ATOM     12  CD  PRO A  11     -11.836   5.693   8.936  0.00  0.00    +0.109 C 
BRANCH   6  13
ATOM     13  CA  LEU A  10     -10.588   8.248  10.148  0.00  0.00    +0.159 C 
BRANCH  13  16
ATOM     14  C   PHE A   9     -12.168   7.799  11.988  0.00  0.00    +0.234 C 
ATOM     15  O   PHE A   9     -13.083   8.312  11.340  0.00  0.00    -0.274 OA
ATOM     16  N   LEU A  10     -10.896   7.695  11.467  0.00  0.00    -0.302 N 
ATOM     17  H   LEU A  10     -10.126   7.482  12.104  0.00  0.00    +0.149 HD
BRANCH  14  18
ATOM     18  CA  PHE A   9     -12.373   7.317  13.435  0.00  0.00    +0.163 C 
BRANCH  18  21
ATOM     19  C   ASN A   8     -13.163   5.017  12.931  0.00  0.00    +0.234 C 
ATOM     20  O   ASN A   8     -12.157   4.763  12.268  0.00  0.00    -0.274 OA
ATOM     21  N   PHE A   9     -13.380   6.256  13.490  0.00  0.00    -0.302 N 
ATOM     22  H   PHE A   9     -14.127   6.326  14.179  0.00  0.00    +0.149 HD
BRANCH  19  23
ATOM     23  CA  ASN A   8     -14.313   4.002  13.089  0.00  0.00    +0.168 C 
BRANCH  23  26
ATOM     24  C   ALA A   7     -14.326   3.553  15.535  0.00  0.00    +0.234 C 
ATOM     25  O   ALA A   7     -14.761   4.668  15.811  0.00  0.00    -0.274 OA
ATOM     26  N   ASN A   8     -14.110   3.125  14.242  0.00  0.00    -0.302 N 
ATOM     27  H   ASN A   8     -13.750   2.185  14.113  0.00  0.00    +0.149 HD
BRANCH  24  28
ATOM     28  CA  ALA A   7     -13.857   2.557  16.613  0.00  0.00    +0.156 C 
ATOM     29  CB  ALA A   7     -14.547   1.228  16.307  0.00  0.00    +0.037 C 
BRANCH  28  32
ATOM     30  C   ALA A   6     -13.224   3.647  18.754  0.00  0.00    +0.234 C 
ATOM     31  O   ALA A   6     -12.249   4.215  18.252  0.00  0.00    -0.274 OA
ATOM     32  N   ALA A   7     -14.180   3.013  17.974  0.00  0.00    -0.303 N 
ATOM     33  H   ALA A   7     -14.792   2.389  18.500  0.00  0.00    +0.149 HD
BRANCH  30  34
ATOM     34  CA  ALA A   6     -13.620   3.819  20.237  0.00  0.00    +0.156 C 
ATOM     35  CB  ALA A   6     -15.127   3.989  20.400  0.00  0.00    +0.037 C 
BRANCH  34  38
ATOM     36  C   LEU A   5     -11.968   4.664  21.836  0.00  0.00    +0.234 C 
ATOM     37  O   LEU A   5     -11.540   3.524  22.011  0.00  0.00    -0.274 OA
ATOM     38  N   ALA A   6     -12.932   4.937  20.872  0.00  0.00    -0.303 N 
ATOM     39  H   ALA A   6     -13.458   5.802  20.975  0.00  0.00    +0.149 HD
BRANCH  36  40
ATOM     40  CA  LEU A   5     -11.652   5.815  22.818  0.00  0.00    +0.159 C 
BRANCH  40  43
ATOM     41  C   GLY A   4     -13.612   5.450  24.280  0.00  0.00    +0.231 C 
ATOM     42  O   GLY A   4     -14.401   5.841  23.426  0.00  0.00    -0.274 OA
ATOM     43  N   LEU A   5     -12.244   5.516  24.123  0.00  0.00    -0.303 N 
ATOM     44  H   LEU A   5     -11.675   5.018  24.794  0.00  0.00    +0.149 HD
BRANCH  41  45
ATOM     45  CA  GLY A   4     -14.095   4.914  25.632  0.00  0.00    +0.200 C 
BRANCH  45  48
ATOM     46  C   SER A   3     -16.184   4.359  26.830  0.00  0.00    +0.236 C 
ATOM     47  O   SER A   3     -15.653   4.470  27.929  0.00  0.00    -0.274 OA
ATOM     48  N   GLY A   4     -15.494   4.509  25.645  0.00  0.00    -0.305 N 
ATOM     49  H   GLY A   4     -16.038   4.634  24.801  0.00  0.00    +0.149 HD
BRANCH  46  50
ATOM     50  CA  SER A   3     -17.649   3.941  26.673  0.00  0.00    +0.184 C 
BRANCH  50  53
ATOM     51  C   ILE A   2     -17.965   2.723  24.556  0.00  0.00    +0.234 C 
ATOM     52  O   ILE A   2     -17.919   3.780  23.925  0.00  0.00    -0.274 OA
ATOM     53  N   SER A   3     -17.738   2.683  25.919  0.00  0.00    -0.301 N 
ATOM     54  H   SER A   3     -18.205   1.939  26.431  0.00  0.00    +0.150 HD
BRANCH  51  55
ATOM     55  CA  ILE A   2     -18.315   1.360  23.907  0.00  0.00    +0.162 C 
BRANCH  55  58
ATOM     56  C   LEU A   1     -19.075   0.900  21.609  0.00  0.00    +0.262 C 
ATOM     57  O   LEU A   1     -20.150   0.454  22.012  0.00  0.00    -0.270 OA
ATOM     58  N   ILE A   2     -18.115   1.423  22.446  0.00  0.00    -0.299 N 
ATOM     59  H   ILE A   2     -17.175   1.592  22.104  0.00  0.00    +0.150 HD
BRANCH  56  60
ATOM     60  CA  LEU A   1     -18.812   0.972  20.093  0.00  0.00    +0.148 C 
BRANCH  60  61
ATOM     61  N   LEU A   1     -19.593   2.119  19.519  0.00  0.00    +0.227 N 
ATOM     62  H1  LEU A   1     -20.605   1.976  19.639  0.00  0.00    +0.200 HD
ATOM     63  H2  LEU A   1     -19.420   2.294  18.522  0.00  0.00    +0.200 HD
ATOM     64  H3  LEU A   1     -19.383   2.983  20.046  0.00  0.00    +0.200 HD
ENDBRANCH  60  61
BRANCH  60  65
ATOM     65  CB  LEU A   1     -17.308   1.209  19.895  0.00  0.00    +0.067 C 
BRANCH  65  66
ATOM     66  CG  LEU A   1     -16.502   0.035  19.313  0.00  0.00    -0.011 C 
ATOM     67  CD2 LEU A   1     -15.076   0.066  19.873  0.00  0.00    +0.007 C 
ATOM     68  CD1 LEU A   1     -17.152  -1.312  19.622  0.00  0.00    +0.007 C 
ENDBRANCH  65  66
ENDBRANCH  60  65
ENDBRANCH  56  60
ENDBRANCH  55  58
BRANCH  55  69
ATOM     69  CB  ILE A   2     -17.546   0.199  24.589  0.00  0.00    +0.015 C 
ATOM     70  CG2 ILE A   2     -18.500  -0.977  24.840  0.00  0.00    +0.010 C 
BRANCH  69  71
ATOM     71  CG1 ILE A   2     -16.283  -0.248  23.820  0.00  0.00    +0.002 C 
ATOM     72  CD1 ILE A   2     -16.370  -1.667  23.272  0.00  0.00    +0.004 C 
ENDBRANCH  69  71
ENDBRANCH  55  69
ENDBRANCH  51  55
ENDBRANCH  50  53
BRANCH  50  73
ATOM     73  CB  SER A   3     -18.283   3.776  28.055  0.00  0.00    +0.187 C 
BRANCH  73  74
ATOM     74  OG  SER A   3     -19.707   3.715  27.908  0.00  0.00    -0.393 OA
ATOM     75  H   SER A   3     -20.086   3.845  28.800  0.00  0.00    +0.209 HD
ENDBRANCH  73  74
ENDBRANCH  50  73
ENDBRANCH  46  50
ENDBRANCH  45  48
ENDBRANCH  41  45
ENDBRANCH  40  43
BRANCH  40  76
ATOM     76  CB  LEU A   5     -10.130   5.984  22.977  0.00  0.00    +0.034 C 
BRANCH  76  77
ATOM     77  CG  LEU A   5      -9.437   6.818  21.882  0.00  0.00    -0.015 C 
ATOM     78  CD2 LEU A   5      -8.933   5.957  20.724  0.00  0.00    +0.007 C 
ATOM     79  CD1 LEU A   5     -10.405   7.883  21.356  0.00  0.00    +0.007 C 
ENDBRANCH  76  77
ENDBRANCH  40  76
ENDBRANCH  36  40
ENDBRANCH  34  38
ENDBRANCH  30  34
ENDBRANCH  28  32
ENDBRANCH  24  28
ENDBRANCH  23  26
BRANCH  23  80
ATOM     80  CB  ASN A   8     -15.635   4.764  13.202  0.00  0.00    +0.127 C 
BRANCH  80  81
ATOM     81  CG  ASN A   8     -16.813   3.823  13.103  0.00  0.00    +0.213 C 
ATOM     82  OD1 ASN A   8     -17.062   3.126  12.133  0.00  0.00    -0.276 OA
ATOM     83  ND2 ASN A   8     -17.628   3.820  14.198  0.00  0.00    -0.329 N 
ATOM     84 HD21 ASN A   8     -17.479   4.385  15.022  0.00  0.00    +0.145 HD
ATOM     85 HD22 ASN A   8     -18.439   3.212  14.179  0.00  0.00    +0.145 HD
ENDBRANCH  80  81
ENDBRANCH  23  80
ENDBRANCH  19  23
ENDBRANCH  18  21
BRANCH  18  86
ATOM     86  CB  PHE A   9     -11.026   6.870  14.005  0.00  0.00    +0.067 C 
BRANCH  86  87
ATOM     87  CG  PHE A   9     -10.570   7.746  15.146  0.00  0.00    -0.045 A 
ATOM     88  CD2 PHE A   9     -10.530   9.140  15.004  0.00  0.00    +0.003 A 
ATOM     89  CD1 PHE A   9     -10.143   7.173  16.351  0.00  0.00    +0.003 A 
ATOM     90  CE2 PHE A   9     -10.082   9.946  16.051  0.00  0.00    +0.000 A 
ATOM     91  CE1 PHE A   9      -9.697   7.980  17.398  0.00  0.00    +0.000 A 
ATOM     92  CZ  PHE A   9      -9.666   9.366  17.247  0.00  0.00    +0.000 A 
ENDBRANCH  86  87
ENDBRANCH  18  86
ENDBRANCH  14  18
ENDBRANCH  13  16
BRANCH  13  93
ATOM     93  CB  LEU A  10      -9.805   9.565  10.232  0.00  0.00    +0.034 C 
BRANCH  93  94
ATOM     94  CG  LEU A  10      -9.885  10.281  11.595  0.00  0.00    -0.015 C 
ATOM     95  CD2 LEU A  10      -8.572  11.023  11.860  0.00  0.00    +0.007 C 
ATOM     96  CD1 LEU A  10     -11.052  11.267  11.682  0.00  0.00    +0.007 C 
ENDBRANCH  93  94
ENDBRANCH  13  93
ENDBRANCH   6  13
ENDBRANCH   2   9
ENDBRANCH   1   4
BRANCH   1  97
ATOM     97  C   GLN A  12      -9.645   8.916   4.928  0.00  0.00    +0.234 C 
ATOM     98  O   GLN A  12      -8.757   9.246   5.711  0.00  0.00    -0.274 OA
ATOM     99  N   ILE A  13     -10.353   9.835   4.187  0.00  0.00    -0.302 N 
ATOM    100  H   ILE A  13     -10.964   9.503   3.440  0.00  0.00    +0.149 HD
BRANCH  99 101
ATOM    101  CA  ILE A  13     -10.207  11.272   4.413  0.00  0.00    +0.162 C 
BRANCH 101 102
ATOM    102  C   ILE A  13     -11.414  11.707   5.276  0.00  0.00    +0.234 C 
ATOM    103  O   ILE A  13     -12.521  11.930   4.780  0.00  0.00    -0.274 OA
ATOM    104  N   LEU A  14     -11.185  11.828   6.634  0.00  0.00    -0.302 N 
ATOM    105  H   LEU A  14     -10.354  11.366   7.013  0.00  0.00    +0.149 HD
BRANCH 104 106
ATOM    106  CA  LEU A  14     -12.297  12.145   7.536  0.00  0.00    +0.159 C 
BRANCH 106 107
ATOM    107  C   LEU A  14     -11.826  13.243   8.525  0.00  0.00    +0.234 C 
ATOM    108  O   LEU A  14     -10.688  13.284   8.987  0.00  0.00    -0.274 OA
ATOM    109  N   LYS A  15     -12.773  14.193   8.838  0.00  0.00    -0.302 N 
ATOM    110  H   LYS A  15     -13.669  14.146   8.350  0.00  0.00    +0.149 HD
BRANCH 109 111
ATOM    111  CA  LYS A  15     -12.495  15.363   9.680  0.00  0.00    +0.159 C 
BRANCH 111 112
ATOM    112  C   LYS A  15     -13.204  15.286  11.059  0.00  0.00    +0.234 C 
ATOM    113  O   LYS A  15     -14.416  15.086  11.157  0.00  0.00    -0.274 OA
ATOM    114  N   LYS A  16     -12.388  15.397  12.163  0.00  0.00    -0.302 N 
ATOM    115  H   LYS A  16     -11.394  15.544  12.004  0.00  0.00    +0.149 HD
BRANCH 114 116
ATOM    116  CA  LYS A  16     -12.910  15.533  13.514  0.00  0.00    +0.159 C 
BRANCH 116 117
ATOM    117  C   LYS A  16     -13.378  16.982  13.761  0.00  0.00    +0.234 C 
ATOM    118  O   LYS A  16     -13.381  17.455  14.899  0.00  0.00    -0.274 OA
ATOM    119  N   ILE A  17     -13.610  17.756  12.641  0.00  0.00    -0.302 N 
ATOM    120  H   ILE A  17     -13.668  17.305  11.729  0.00  0.00    +0.149 HD
BRANCH 119 121
ATOM    121  CA  ILE A  17     -14.030  19.153  12.785  0.00  0.00    +0.162 C 
BRANCH 121 122
ATOM    122  C   ILE A  17     -15.272  19.447  11.921  0.00  0.00    +0.234 C 
ATOM    123  O   ILE A  17     -15.914  20.487  12.062  0.00  0.00    -0.274 OA
ATOM    124  N   ALA A  18     -15.634  18.476  11.018  0.00  0.00    -0.303 N 
ATOM    125  H   ALA A  18     -15.053  17.644  10.909  0.00  0.00    +0.149 HD
BRANCH 124 126
ATOM    126  CA  ALA A  18     -16.862  18.550  10.214  0.00  0.00    +0.156 C 
ATOM    127  CB  ALA A  18     -16.563  18.292   8.743  0.00  0.00    +0.037 C 
BRANCH 126 128
ATOM    128  C   ALA A  18     -17.944  17.570  10.750  0.00  0.00    +0.234 C 
ATOM    129  O   ALA A  18     -18.069  17.254  11.930  0.00  0.00    -0.274 OA
ATOM    130  N   ARG A  19     -18.661  16.945   9.751  0.00  0.00    -0.302 N 
ATOM    131  H   ARG A  19     -18.637  17.345   8.824  0.00  0.00    +0.149 HD
BRANCH 130 132
ATOM    132  CA  ARG A  19     -19.330  15.661   9.901  0.00  0.00    +0.159 C 
BRANCH 132 133
ATOM    133  C   ARG A  19     -18.338  14.555   9.449  0.00  0.00    +0.234 C 
ATOM    134  O   ARG A  19     -17.459  14.099  10.177  0.00  0.00    -0.274 OA
ATOM    135  N   LYS A  20     -18.424  14.206   8.120  0.00  0.00    -0.302 N 
ATOM    136  H   LYS A  20     -19.232  14.480   7.562  0.00  0.00    +0.149 HD
BRANCH 135 137
ATOM    137  CA  LYS A  20     -17.425  13.362   7.478  0.00  0.00    +0.159 C 
BRANCH 137 138
ATOM    138  C   LYS A  20     -16.840  14.055   6.228  0.00  0.00    +0.234 C 
ATOM    139  O   LYS A  20     -16.805  15.283   6.125  0.00  0.00    -0.274 OA
ATOM    140  N   UNK A  21     -16.422  13.200   5.242  0.00  0.00    -0.304 N 
ATOM    141  H   UNK A  21     -16.806  12.261   5.302  0.00  0.00    +0.149 HD
BRANCH 140 142
ATOM    142  C   UNK A  21     -16.409  13.619   3.829  0.00  0.00    +0.144 C 
BRANCH 142 143
ATOM    143  C   UNK A  21     -17.837  13.469   3.228  0.00  0.00    +0.064 C 
ATOM    144  O   UNK A  21     -18.458  12.425   3.558  0.00  0.00    -0.548 OA
ATOM    145  O   UNK A  21     -18.119  14.370   2.374  0.00  0.00    -0.548 OA
ENDBRANCH 142 143
BRANCH 142 146
ATOM    146  C   UNK A  21     -15.505  12.692   3.015  0.00  0.00    +0.184 C 
BRANCH 146 147
ATOM    147  O   UNK A  21     -16.170  12.215   1.834  0.00  0.00    -0.393 OA
ATOM    148  H   UNK A  21     -16.470  13.047   1.385  0.00  0.00    +0.209 HD
ENDBRANCH 146 147
ENDBRANCH 142 146
ENDBRANCH 140 142
ENDBRANCH 137 138
BRANCH 137 149
ATOM    149  CB  LYS A  20     -18.004  11.976   7.147  0.00  0.00    +0.032 C 
BRANCH 149 150
ATOM    150  CG  LYS A  20     -18.010  11.027   8.357  0.00  0.00    +0.007 C 
BRANCH 150 151
ATOM    151  CD  LYS A  20     -19.402  10.464   8.695  0.00  0.00    +0.051 C 
BRANCH 151 152
ATOM    152  CE  LYS A  20     -20.536  11.390   8.256  0.00  0.00    +0.127 C 
BRANCH 152 153
ATOM    153  NZ  LYS A  20     -21.792  11.023   8.936  0.00  0.00    +0.218 N 
ATOM    154  HZ1 LYS A  20     -22.201  10.153   8.575  0.00  0.00    +0.199 HD
ATOM    155  HZ2 LYS A  20     -22.518  11.747   8.915  0.00  0.00    +0.199 HD
ATOM    156  HZ3 LYS A  20     -21.646  10.787   9.945  0.00  0.00    +0.199 HD
ENDBRANCH 152 153
ENDBRANCH 151 152
ENDBRANCH 150 151
ENDBRANCH 149 150
ENDBRANCH 137 149
ENDBRANCH 135 137
ENDBRANCH 132 133
BRANCH 132 157
ATOM    157  CB  ARG A  19     -20.636  15.647   9.098  0.00  0.00    +0.035 C 
BRANCH 157 158
ATOM    158  CG  ARG A  19     -20.813  16.877   8.199  0.00  0.00    +0.039 C 
BRANCH 158 159
ATOM    159  CD  ARG A  19     -20.927  16.500   6.729  0.00  0.00    +0.196 C 
BRANCH 159 160
ATOM    160  NE  ARG A  19     -19.670  16.750   6.015  0.00  0.00    -0.279 N 
ATOM    161  CZ  ARG A  19     -19.501  16.523   4.705  0.00  0.00    +0.341 C 
ATOM    162  NH1 ARG A  19     -20.417  15.882   3.974  0.00  0.00    -0.292 N 
ATOM    163  NH2 ARG A  19     -18.382  16.940   4.105  0.00  0.00    -0.292 N 
ATOM    164  HE  ARG A  19     -18.925  17.214   6.522  0.00  0.00    +0.258 HD
ATOM    165 HH11 ARG A  19     -21.281  15.557   4.391  0.00  0.00    +0.255 HD
ATOM    166 HH12 ARG A  19     -20.311  15.743   2.979  0.00  0.00    +0.255 HD
ATOM    167 HH21 ARG A  19     -17.712  17.514   4.601  0.00  0.00    +0.255 HD
ATOM    168 HH22 ARG A  19     -18.260  16.840   3.106  0.00  0.00    +0.255 HD
ENDBRANCH 159 160
ENDBRANCH 158 159
ENDBRANCH 157 158
ENDBRANCH 132 157
ENDBRANCH 130 132
ENDBRANCH 126 128
ENDBRANCH 124 126
ENDBRANCH 121 122
BRANCH 121 169
ATOM    169  CB  ILE A  17     -12.907  20.195  12.578  0.00  0.00    +0.015 C 
ATOM    170  CG2 ILE A  17     -12.828  21.122  13.799  0.00  0.00    +0.010 C 
BRANCH 169 171
ATOM    171  CG1 ILE A  17     -11.539  19.577  12.241  0.00  0.00    +0.002 C 
ATOM    172  CD1 ILE A  17     -10.590  19.508  13.431  0.00  0.00    +0.004 C 
ENDBRANCH 169 171
ENDBRANCH 121 169
ENDBRANCH 119 121
ENDBRANCH 116 117
BRANCH 116 173
ATOM    173  CB  LYS A  16     -11.854  15.122  14.552  0.00  0.00    +0.032 C 
BRANCH 173 174
ATOM    174  CG  LYS A  16     -11.612  13.607  14.609  0.00  0.00    +0.007 C 
BRANCH 174 175
ATOM    175  CD  LYS A  16     -10.119  13.279  14.497  0.00  0.00    +0.051 C 
BRANCH 175 176
ATOM    176  CE  LYS A  16      -9.267  14.455  14.029  0.00  0.00    +0.127 C 
BRANCH 176 177
ATOM    177  NZ  LYS A  16      -7.846  14.258  14.395  0.00  0.00    +0.218 N 
ATOM    178  HZ1 LYS A  16      -7.705  14.259  15.413  0.00  0.00    +0.199 HD
ATOM    179  HZ2 LYS A  16      -7.265  15.018  14.012  0.00  0.00    +0.199 HD
ATOM    180  HZ3 LYS A  16      -7.472  13.377  14.019  0.00  0.00    +0.199 HD
ENDBRANCH 176 177
ENDBRANCH 175 176
ENDBRANCH 174 175
ENDBRANCH 173 174
ENDBRANCH 116 173
ENDBRANCH 114 116
ENDBRANCH 111 112
BRANCH 111 181
ATOM    181  CB  LYS A  15     -12.924  16.618   8.905  0.00  0.00    +0.032 C 
BRANCH 181 182
ATOM    182  CG  LYS A  15     -13.653  16.395   7.579  0.00  0.00    +0.007 C 
BRANCH 182 183
ATOM    183  CD  LYS A  15     -12.715  16.760   6.418  0.00  0.00    +0.051 C 
BRANCH 183 184
ATOM    184  CE  LYS A  15     -13.438  17.479   5.291  0.00  0.00    +0.127 C 
BRANCH 184 185
ATOM    185  NZ  LYS A  15     -14.901  17.286   5.457  0.00  0.00    +0.218 N 
ATOM    186  HZ1 LYS A  15     -15.157  16.289   5.416  0.00  0.00    +0.199 HD
ATOM    187  HZ2 LYS A  15     -15.435  17.758   4.715  0.00  0.00    +0.199 HD
ATOM    188  HZ3 LYS A  15     -15.241  17.650   6.357  0.00  0.00    +0.199 HD
ENDBRANCH 184 185
ENDBRANCH 183 184
ENDBRANCH 182 183
ENDBRANCH 181 182
ENDBRANCH 111 181
ENDBRANCH 109 111
ENDBRANCH 106 107
BRANCH 106 189
ATOM    189  CB  LEU A  14     -12.758  10.890   8.283  0.00  0.00    +0.034 C 
BRANCH 189 190
ATOM    190  CG  LEU A  14     -14.248  10.876   8.682  0.00  0.00    -0.015 C 
ATOM    191  CD1 LEU A  14     -14.865   9.478   8.615  0.00  0.00    +0.007 C 
ATOM    192  CD2 LEU A  14     -14.405  11.442  10.096  0.00  0.00    +0.007 C 
ENDBRANCH 189 190
ENDBRANCH 106 189
ENDBRANCH 104 106
ENDBRANCH 101 102
BRANCH 101 193
ATOM    193  CB  ILE A  13     -10.104  12.053   3.083  0.00  0.00    +0.015 C 
ATOM    194  CG2 ILE A  13      -8.687  12.605   2.867  0.00  0.00    +0.010 C 
BRANCH 193 195
ATOM    195  CG1 ILE A  13     -10.506  11.136   1.903  0.00  0.00    +0.002 C 
ATOM    196  CD1 ILE A  13     -11.911  11.398   1.379  0.00  0.00    +0.004 C 
ENDBRANCH 193 195
ENDBRANCH 101 193
ENDBRANCH  99 101
ENDBRANCH   1  97
BRANCH   1 197
ATOM    197  CB  GLN A  12     -11.092   7.374   3.609  0.00  0.00    +0.041 C 
BRANCH 197 198
ATOM    198  CG  GLN A  12     -11.252   5.988   2.996  0.00  0.00    +0.098 C 
BRANCH 198 199
ATOM    199  CD  GLN A  12     -12.548   5.366   3.463  0.00  0.00    +0.211 C 
ATOM    200  OE1 GLN A  12     -12.878   5.307   4.642  0.00  0.00    -0.276 OA
ATOM    201  NE2 GLN A  12     -13.359   4.911   2.470  0.00  0.00    -0.329 N 
ATOM    202 HE21 GLN A  12     -12.957   4.647   1.569  0.00  0.00    +0.145 HD
ATOM    203 HE22 GLN A  12     -14.183   4.400   2.759  0.00  0.00    +0.145 HD
ENDBRANCH 198 199
ENDBRANCH 197 198
ENDBRANCH   1 197
TORSDOF 85
ENDMDL
MODEL 7
REMARK minimizedAffinity -4.9367528
REMARK minimizedRMSD -1
REMARK  Name = crb16.pdb
REMARK  102 active torsions:
REMARK  status: ('A' for Active; 'I' for Inactive)
REMARK    1  A    between atoms: N_1  and  CA_2
REMARK    2  A    between atoms: CA_2  and  C_3
REMARK    3  A    between atoms: CA_2  and  CB_5
REMARK    4  A    between atoms: CB_5  and  CG_6
REMARK    5  A    between atoms: CG_6  and  CD2_7
REMARK    6  A    between atoms: CG_6  and  CD1_8
REMARK    7  A    between atoms: N_9  and  CA_10
REMARK    8  A    between atoms: CA_10  and  C_11
REMARK    9  A    between atoms: CA_10  and  CB_13
REMARK   10  A    between atoms: CB_13  and  CG1_14
REMARK   11  A    between atoms: CB_13  and  CG2_15
REMARK   12  A    between atoms: CG1_14  and  CD1_16
REMARK   13  A    between atoms: N_17  and  CA_18
REMARK   14  A    between atoms: CA_18  and  C_19
REMARK   15  A    between atoms: CA_18  and  CB_21
REMARK   16  A    between atoms: CB_21  and  OG_22
REMARK   17  A    between atoms: N_23  and  CA_24
REMARK   18  A    between atoms: CA_24  and  C_25
REMARK   19  A    between atoms: N_27  and  CA_28
REMARK   20  A    between atoms: CA_28  and  C_29
REMARK   21  A    between atoms: CA_28  and  CB_31
REMARK   22  A    between atoms: CB_31  and  CG_32
REMARK   23  A    between atoms: CG_32  and  CD2_33
REMARK   24  A    between atoms: CG_32  and  CD1_34
REMARK   25  A    between atoms: N_35  and  CA_36
REMARK   26  A    between atoms: CA_36  and  C_37
REMARK   27  A    between atoms: CA_36  and  CB_39
REMARK   28  A    between atoms: N_40  and  CA_41
REMARK   29  A    between atoms: CA_41  and  C_42
REMARK   30  A    between atoms: CA_41  and  CB_44
REMARK   31  A    between atoms: N_45  and  CA_46
REMARK   32  A    between atoms: CA_46  and  C_47
REMARK   33  A    between atoms: CA_46  and  CB_49
REMARK   34  A    between atoms: CB_49  and  CG_50
REMARK   35  A    between atoms: N_53  and  CA_54
REMARK   36  A    between atoms: CA_54  and  C_55
REMARK   37  A    between atoms: CA_54  and  CB_57
REMARK   38  A    between atoms: CB_57  and  CG_58
REMARK   39  A    between atoms: N_64  and  CA_65
REMARK   40  A    between atoms: CA_65  and  C_66
REMARK   41  A    between atoms: CA_65  and  CB_68
REMARK   42  A    between atoms: CB_68  and  CG_69
REMARK   43  A    between atoms: CG_69  and  CD2_70
REMARK   44  A    between atoms: CG_69  and  CD1_71
REMARK   45  A    between atoms: CA_73  and  C_74
REMARK   46  A    between atoms: N_79  and  CA_80
REMARK   47  A    between atoms: CA_80  and  C_81
REMARK   48  A    between atoms: CA_80  and  CB_83
REMARK   49  A    between atoms: CB_83  and  CG_84
REMARK   50  A    between atoms: CG_84  and  CD_85
REMARK   51  A    between atoms: N_88  and  CA_89
REMARK   52  A    between atoms: CA_89  and  C_90
REMARK   53  A    between atoms: CA_89  and  CB_92
REMARK   54  A    between atoms: CB_92  and  CG1_93
REMARK   55  A    between atoms: CB_92  and  CG2_94
REMARK   56  A    between atoms: CG1_93  and  CD1_95
REMARK   57  A    between atoms: N_96  and  CA_97
REMARK   58  A    between atoms: CA_97  and  C_98
REMARK   59  A    between atoms: CA_97  and  CB_100
REMARK   60  A    between atoms: CB_100  and  CG_101
REMARK   61  A    between atoms: CG_101  and  CD1_102
REMARK   62  A    between atoms: CG_101  and  CD2_103
REMARK   63  A    between atoms: N_104  and  CA_105
REMARK   64  A    between atoms: CA_105  and  C_106
REMARK   65  A    between atoms: CA_105  and  CB_108
REMARK   66  A    between atoms: CB_108  and  CG_109
REMARK   67  A    between atoms: CG_109  and  CD_110
REMARK   68  A    between atoms: CD_110  and  CE_111
REMARK   69  A    between atoms: CE_111  and  NZ_112
REMARK   70  A    between atoms: N_113  and  CA_114
REMARK   71  A    between atoms: CA_114  and  C_115
REMARK   72  A    between atoms: CA_114  and  CB_117
REMARK   73  A    between atoms: CB_117  and  CG_118
REMARK   74  A    between atoms: CG_118  and  CD_119
REMARK   75  A    between atoms: CD_119  and  CE_120
REMARK   76  A    between atoms: CE_120  and  NZ_121
REMARK   77  A    between atoms: N_122  and  CA_123
REMARK   78  A    between atoms: CA_123  and  C_124
REMARK   79  A    between atoms: CA_123  and  CB_126
REMARK   80  A    between atoms: CB_126  and  CG1_127
REMARK   81  A    between atoms: CB_126  and  CG2_128
REMARK   82  A    between atoms: CG1_127  and  CD1_129
REMARK   83  A    between atoms: N_130  and  CA_131
REMARK   84  A    between atoms: CA_131  and  C_132
REMARK   85  A    between atoms: CA_131  and  CB_134
REMARK   86  A    between atoms: N_135  and  CA_136
REMARK   87  A    between atoms: CA_136  and  C_137
REMARK   88  A    between atoms: CA_136  and  CB_139
REMARK   89  A    between atoms: CB_139  and  CG_140
REMARK   90  A    between atoms: CG_140  and  CD_141
REMARK   91  A    between atoms: CD_141  and  NE_142
REMARK   92  A    between atoms: N_146  and  CA_147
REMARK   93  A    between atoms: CA_147  and  C_148
REMARK   94  A    between atoms: CA_147  and  CB_150
REMARK   95  A    between atoms: CB_150  and  CG_151
REMARK   96  A    between atoms: CG_151  and  CD_152
REMARK   97  A    between atoms: CD_152  and  CE_153
REMARK   98  A    between atoms: CE_153  and  NZ_154
REMARK   99  A    between atoms: N_155  and  C_156
REMARK  100  A    between atoms: C_156  and  C_157
REMARK  101  A    between atoms: C_156  and  C_159
REMARK  102  A    between atoms: C_159  and  O_160
REMARK                            x       y       z     vdW  Elec       q    Type
REMARK                         _______ _______ _______ _____ _____    ______ ____
ROOT
ATOM      1  CA  GLN A  12     -10.851   7.849  10.875  0.00  0.00    +0.159 C 
ENDROOT
BRANCH   1   4
ATOM      2  C   PRO A  11     -12.289   5.891  11.310  0.00  0.00    +0.234 C 
ATOM      3  O   PRO A  11     -11.449   5.405  12.067  0.00  0.00    -0.274 OA
ATOM      4  N   GLN A  12     -12.042   7.049  10.601  0.00  0.00    -0.302 N 
ATOM      5  H   GLN A  12     -12.853   7.516  10.202  0.00  0.00    +0.149 HD
BRANCH   2   9
ATOM      6  C   LEU A  10     -13.011   3.687   9.174  0.00  0.00    +0.236 C 
ATOM      7  O   LEU A  10     -12.787   4.687   8.476  0.00  0.00    -0.274 OA
ATOM      8  N   PRO A  11     -13.439   3.837  10.476  0.00  0.00    -0.288 N 
ATOM      9  CA  PRO A  11     -13.627   5.178  11.028  0.00  0.00    +0.162 C 
ATOM     10  CB  PRO A  11     -14.425   4.971  12.315  0.00  0.00    +0.033 C 
ATOM     11  CG  PRO A  11     -14.106   3.536  12.711  0.00  0.00    +0.021 C 
ATOM     12  CD  PRO A  11     -13.998   2.830  11.370  0.00  0.00    +0.109 C 
BRANCH   6  13
ATOM     13  CA  LEU A  10     -12.807   2.265   8.575  0.00  0.00    +0.159 C 
BRANCH  13  16
ATOM     14  C   PHE A   9     -14.362   1.601   6.781  0.00  0.00    +0.234 C 
ATOM     15  O   PHE A   9     -15.155   1.161   7.617  0.00  0.00    -0.274 OA
ATOM     16  N   LEU A  10     -13.179   2.196   7.162  0.00  0.00    -0.302 N 
ATOM     17  H   LEU A  10     -12.456   2.335   6.455  0.00  0.00    +0.149 HD
BRANCH  14  18
ATOM     18  CA  PHE A   9     -14.612   1.444   5.271  0.00  0.00    +0.163 C 
BRANCH  18  21
ATOM     19  C   ASN A   8     -15.757  -0.241   3.850  0.00  0.00    +0.234 C 
ATOM     20  O   ASN A   8     -14.983  -0.047   2.911  0.00  0.00    -0.274 OA
ATOM     21  N   PHE A   9     -15.686   0.482   5.019  0.00  0.00    -0.302 N 
ATOM     22  H   PHE A   9     -16.224   0.131   5.810  0.00  0.00    +0.149 HD
BRANCH  19  23
ATOM     23  CA  ASN A   8     -16.936  -1.228   3.744  0.00  0.00    +0.168 C 
BRANCH  23  26
ATOM     24  C   ALA A   7     -18.647  -1.502   5.527  0.00  0.00    +0.234 C 
ATOM     25  O   ALA A   7     -18.165  -2.559   5.928  0.00  0.00    -0.274 OA
ATOM     26  N   ASN A   8     -18.102  -0.766   4.498  0.00  0.00    -0.302 N 
ATOM     27  H   ASN A   8     -18.570   0.097   4.238  0.00  0.00    +0.149 HD
BRANCH  24  28
ATOM     28  CA  ALA A   7     -19.987  -0.953   6.052  0.00  0.00    +0.156 C 
ATOM     29  CB  ALA A   7     -20.658  -0.247   4.874  0.00  0.00    +0.037 C 
BRANCH  28  32
ATOM     30  C   ALA A   6     -20.820   0.154   8.114  0.00  0.00    +0.234 C 
ATOM     31  O   ALA A   6     -21.698  -0.695   8.294  0.00  0.00    -0.274 OA
ATOM     32  N   ALA A   7     -19.809  -0.028   7.182  0.00  0.00    -0.303 N 
ATOM     33  H   ALA A   7     -19.295   0.826   6.960  0.00  0.00    +0.149 HD
BRANCH  30  34
ATOM     34  CA  ALA A   6     -20.597   1.343   9.075  0.00  0.00    +0.156 C 
ATOM     35  CB  ALA A   6     -21.084   2.655   8.469  0.00  0.00    +0.037 C 
BRANCH  34  38
ATOM     36  C   LEU A   5     -18.765   0.788  10.605  0.00  0.00    +0.234 C 
ATOM     37  O   LEU A   5     -19.456  -0.082  11.132  0.00  0.00    -0.274 OA
ATOM     38  N   ALA A   6     -19.202   1.479   9.480  0.00  0.00    -0.303 N 
ATOM     39  H   ALA A   6     -18.750   2.368   9.276  0.00  0.00    +0.149 HD
BRANCH  36  40
ATOM     40  CA  LEU A   5     -17.489   1.341  11.279  0.00  0.00    +0.159 C 
BRANCH  40  43
ATOM     41  C   GLY A   4     -18.049   2.878  13.133  0.00  0.00    +0.231 C 
ATOM     42  O   GLY A   4     -17.882   3.876  12.440  0.00  0.00    -0.274 OA
ATOM     43  N   LEU A   5     -17.762   1.603  12.694  0.00  0.00    -0.303 N 
ATOM     44  H   LEU A   5     -18.089   0.833  13.260  0.00  0.00    +0.149 HD
BRANCH  41  45
ATOM     45  CA  GLY A   4     -18.531   2.982  14.584  0.00  0.00    +0.200 C 
BRANCH  45  48
ATOM     46  C   SER A   3     -16.414   2.869  15.853  0.00  0.00    +0.236 C 
ATOM     47  O   SER A   3     -16.197   1.714  15.503  0.00  0.00    -0.274 OA
ATOM     48  N   GLY A   4     -17.553   3.559  15.495  0.00  0.00    -0.305 N 
ATOM     49  H   GLY A   4     -17.549   4.563  15.624  0.00  0.00    +0.149 HD
BRANCH  46  50
ATOM     50  CA  SER A   3     -15.480   3.617  16.809  0.00  0.00    +0.184 C 
BRANCH  50  53
ATOM     51  C   ILE A   2     -15.405   4.087  19.226  0.00  0.00    +0.234 C 
ATOM     52  O   ILE A   2     -15.009   5.232  19.005  0.00  0.00    -0.274 OA
ATOM     53  N   SER A   3     -15.767   3.235  18.198  0.00  0.00    -0.301 N 
ATOM     54  H   SER A   3     -15.648   2.241  18.375  0.00  0.00    +0.150 HD
BRANCH  51  55
ATOM     55  CA  ILE A   2     -15.497   3.478  20.648  0.00  0.00    +0.162 C 
BRANCH  55  58
ATOM     56  C   LEU A   1     -17.483   2.366  21.592  0.00  0.00    +0.262 C 
ATOM     57  O   LEU A   1     -17.690   3.305  22.362  0.00  0.00    -0.270 OA
ATOM     58  N   ILE A   2     -16.463   2.363  20.665  0.00  0.00    -0.299 N 
ATOM     59  H   ILE A   2     -16.202   1.503  20.194  0.00  0.00    +0.150 HD
BRANCH  56  60
ATOM     60  CA  LEU A   1     -18.454   1.171  21.583  0.00  0.00    +0.148 C 
BRANCH  60  61
ATOM     61  N   LEU A   1     -19.355   1.287  20.387  0.00  0.00    +0.227 N 
ATOM     62  H1  LEU A   1     -19.930   2.138  20.437  0.00  0.00    +0.200 HD
ATOM     63  H2  LEU A   1     -19.989   0.489  20.254  0.00  0.00    +0.200 HD
ATOM     64  H3  LEU A   1     -18.786   1.401  19.532  0.00  0.00    +0.200 HD
ENDBRANCH  60  61
BRANCH  60  65
ATOM     65  CB  LEU A   1     -17.612  -0.109  21.485  0.00  0.00    +0.067 C 
BRANCH  65  66
ATOM     66  CG  LEU A   1     -17.341  -0.852  22.805  0.00  0.00    -0.011 C 
ATOM     67  CD2 LEU A   1     -15.897  -0.593  23.249  0.00  0.00    +0.007 C 
ATOM     68  CD1 LEU A   1     -18.308  -0.426  23.908  0.00  0.00    +0.007 C 
ENDBRANCH  65  66
ENDBRANCH  60  65
ENDBRANCH  56  60
ENDBRANCH  55  58
BRANCH  55  69
ATOM     69  CB  ILE A   2     -14.095   3.093  21.185  0.00  0.00    +0.015 C 
ATOM     70  CG2 ILE A   2     -13.944   3.576  22.634  0.00  0.00    +0.010 C 
BRANCH  69  71
ATOM     71  CG1 ILE A   2     -13.768   1.589  21.051  0.00  0.00    +0.002 C 
ATOM     72  CD1 ILE A   2     -13.069   1.228  19.746  0.00  0.00    +0.004 C 
ENDBRANCH  69  71
ENDBRANCH  55  69
ENDBRANCH  51  55
ENDBRANCH  50  53
BRANCH  50  73
ATOM     73  CB  SER A   3     -14.027   3.293  16.460  0.00  0.00    +0.187 C 
BRANCH  73  74
ATOM     74  OG  SER A   3     -13.260   4.503  16.498  0.00  0.00    -0.393 OA
ATOM     75  H   SER A   3     -12.411   4.310  16.053  0.00  0.00    +0.209 HD
ENDBRANCH  73  74
ENDBRANCH  50  73
ENDBRANCH  46  50
ENDBRANCH  45  48
ENDBRANCH  41  45
ENDBRANCH  40  43
BRANCH  40  76
ATOM     76  CB  LEU A   5     -16.337   0.326  11.165  0.00  0.00    +0.034 C 
BRANCH  76  77
ATOM     77  CG  LEU A   5     -16.147  -0.602  12.382  0.00  0.00    -0.015 C 
ATOM     78  CD2 LEU A   5     -16.532  -2.049  12.078  0.00  0.00    +0.007 C 
ATOM     79  CD1 LEU A   5     -14.691  -0.539  12.854  0.00  0.00    +0.007 C 
ENDBRANCH  76  77
ENDBRANCH  40  76
ENDBRANCH  36  40
ENDBRANCH  34  38
ENDBRANCH  30  34
ENDBRANCH  28  32
ENDBRANCH  24  28
ENDBRANCH  23  26
BRANCH  23  80
ATOM     80  CB  ASN A   8     -17.281  -1.433   2.268  0.00  0.00    +0.127 C 
BRANCH  80  81
ATOM     81  CG  ASN A   8     -18.731  -1.820   2.098  0.00  0.00    +0.213 C 
ATOM     82  OD1 ASN A   8     -19.633  -1.034   1.858  0.00  0.00    -0.276 OA
ATOM     83  ND2 ASN A   8     -18.984  -3.151   2.260  0.00  0.00    -0.329 N 
ATOM     84 HD21 ASN A   8     -18.281  -3.844   2.472  0.00  0.00    +0.145 HD
ATOM     85 HD22 ASN A   8     -19.944  -3.463   2.166  0.00  0.00    +0.145 HD
ENDBRANCH  80  81
ENDBRANCH  23  80
ENDBRANCH  19  23
ENDBRANCH  18  21
BRANCH  18  86
ATOM     86  CB  PHE A   9     -14.913   2.819   4.672  0.00  0.00    +0.067 C 
BRANCH  86  87
ATOM     87  CG  PHE A   9     -13.786   3.324   3.806  0.00  0.00    -0.045 A 
ATOM     88  CD2 PHE A   9     -13.779   4.647   3.341  0.00  0.00    +0.003 A 
ATOM     89  CD1 PHE A   9     -12.747   2.464   3.424  0.00  0.00    +0.003 A 
ATOM     90  CE2 PHE A   9     -12.749   5.103   2.518  0.00  0.00    +0.000 A 
ATOM     91  CE1 PHE A   9     -11.716   2.923   2.603  0.00  0.00    +0.000 A 
ATOM     92  CZ  PHE A   9     -11.718   4.242   2.150  0.00  0.00    +0.000 A 
ENDBRANCH  86  87
ENDBRANCH  18  86
ENDBRANCH  14  18
ENDBRANCH  13  16
BRANCH  13  93
ATOM     93  CB  LEU A  10     -11.367   1.800   8.826  0.00  0.00    +0.034 C 
BRANCH  93  94
ATOM     94  CG  LEU A  10     -11.218   0.302   9.162  0.00  0.00    -0.015 C 
ATOM     95  CD2 LEU A  10     -12.514  -0.210   9.796  0.00  0.00    +0.007 C 
ATOM     96  CD1 LEU A  10     -10.879  -0.552   7.938  0.00  0.00    +0.007 C 
ENDBRANCH  93  94
ENDBRANCH  13  93
ENDBRANCH   6  13
ENDBRANCH   2   9
ENDBRANCH   1   4
BRANCH   1  97
ATOM     97  C   GLN A  12     -11.208   9.072  11.743  0.00  0.00    +0.234 C 
ATOM     98  O   GLN A  12     -11.544   8.956  12.921  0.00  0.00    -0.274 OA
ATOM     99  N   ILE A  13     -11.035  10.300  11.144  0.00  0.00    -0.302 N 
ATOM    100  H   ILE A  13     -10.605  10.343  10.220  0.00  0.00    +0.149 HD
BRANCH  99 101
ATOM    101  CA  ILE A  13     -11.405  11.539  11.826  0.00  0.00    +0.162 C 
BRANCH 101 102
ATOM    102  C   ILE A  13     -12.792  11.947  11.279  0.00  0.00    +0.234 C 
ATOM    103  O   ILE A  13     -13.818  11.332  11.585  0.00  0.00    -0.274 OA
ATOM    104  N   LEU A  14     -12.822  13.040  10.434  0.00  0.00    -0.302 N 
ATOM    105  H   LEU A  14     -12.011  13.665  10.447  0.00  0.00    +0.149 HD
BRANCH 104 106
ATOM    106  CA  LEU A  14     -14.107  13.550   9.945  0.00  0.00    +0.159 C 
BRANCH 106 107
ATOM    107  C   LEU A  14     -13.938  13.953   8.458  0.00  0.00    +0.234 C 
ATOM    108  O   LEU A  14     -13.382  14.991   8.105  0.00  0.00    -0.274 OA
ATOM    109  N   LYS A  15     -14.440  13.051   7.546  0.00  0.00    -0.302 N 
ATOM    110  H   LYS A  15     -14.811  12.171   7.907  0.00  0.00    +0.149 HD
BRANCH 109 111
ATOM    111  CA  LYS A  15     -14.296  13.205   6.093  0.00  0.00    +0.159 C 
BRANCH 111 112
ATOM    112  C   LYS A  15     -15.504  12.623   5.310  0.00  0.00    +0.234 C 
ATOM    113  O   LYS A  15     -15.367  11.734   4.469  0.00  0.00    -0.274 OA
ATOM    114  N   LYS A  16     -16.741  13.122   5.655  0.00  0.00    -0.302 N 
ATOM    115  H   LYS A  16     -16.778  13.843   6.371  0.00  0.00    +0.149 HD
BRANCH 114 116
ATOM    116  CA  LYS A  16     -17.946  12.825   4.896  0.00  0.00    +0.159 C 
BRANCH 116 117
ATOM    117  C   LYS A  16     -17.798  13.327   3.444  0.00  0.00    +0.234 C 
ATOM    118  O   LYS A  16     -18.533  12.896   2.553  0.00  0.00    -0.274 OA
ATOM    119  N   ILE A  17     -16.944  14.393   3.243  0.00  0.00    -0.302 N 
ATOM    120  H   ILE A  17     -16.306  14.666   3.989  0.00  0.00    +0.149 HD
BRANCH 119 121
ATOM    121  CA  ILE A  17     -16.767  14.951   1.900  0.00  0.00    +0.162 C 
BRANCH 121 122
ATOM    122  C   ILE A  17     -15.529  14.343   1.210  0.00  0.00    +0.234 C 
ATOM    123  O   ILE A  17     -15.268  13.145   1.313  0.00  0.00    -0.274 OA
ATOM    124  N   ALA A  18     -14.728  15.213   0.509  0.00  0.00    -0.303 N 
ATOM    125  H   ALA A  18     -15.001  16.192   0.421  0.00  0.00    +0.149 HD
BRANCH 124 126
ATOM    126  CA  ALA A  18     -13.450  14.812  -0.094  0.00  0.00    +0.156 C 
ATOM    127  CB  ALA A  18     -12.552  14.138   0.934  0.00  0.00    +0.037 C 
BRANCH 126 128
ATOM    128  C   ALA A  18     -13.677  13.896  -1.332  0.00  0.00    +0.234 C 
ATOM    129  O   ALA A  18     -14.072  14.293  -2.424  0.00  0.00    -0.274 OA
ATOM    130  N   ARG A  19     -13.553  12.552  -1.049  0.00  0.00    -0.302 N 
ATOM    131  H   ARG A  19     -13.079  12.284  -0.198  0.00  0.00    +0.149 HD
BRANCH 130 132
ATOM    132  CA  ARG A  19     -14.190  11.490  -1.814  0.00  0.00    +0.159 C 
BRANCH 132 133
ATOM    133  C   ARG A  19     -14.269  10.234  -0.905  0.00  0.00    +0.234 C 
ATOM    134  O   ARG A  19     -15.278   9.918  -0.278  0.00  0.00    -0.274 OA
ATOM    135  N   LYS A  20     -13.081   9.558  -0.743  0.00  0.00    -0.302 N 
ATOM    136  H   LYS A  20     -12.292   9.738  -1.364  0.00  0.00    +0.149 HD
BRANCH 135 137
ATOM    137  CA  LYS A  20     -12.922   8.504   0.250  0.00  0.00    +0.159 C 
BRANCH 137 138
ATOM    138  C   LYS A  20     -12.456   9.087   1.602  0.00  0.00    +0.234 C 
ATOM    139  O   LYS A  20     -12.855  10.180   2.008  0.00  0.00    -0.274 OA
ATOM    140  N   UNK A  21     -11.536   8.320   2.269  0.00  0.00    -0.304 N 
ATOM    141  H   UNK A  21     -11.050   7.640   1.692  0.00  0.00    +0.149 HD
BRANCH 140 142
ATOM    142  C   UNK A  21     -10.570   8.932   3.199  0.00  0.00    +0.144 C 
BRANCH 142 143
ATOM    143  C   UNK A  21      -9.267   9.299   2.430  0.00  0.00    +0.064 C 
ATOM    144  O   UNK A  21      -8.713   8.349   1.818  0.00  0.00    -0.548 OA
ATOM    145  O   UNK A  21      -8.877  10.491   2.644  0.00  0.00    -0.548 OA
ENDBRANCH 142 143
BRANCH 142 146
ATOM    146  C   UNK A  21     -10.161   7.920   4.271  0.00  0.00    +0.184 C 
BRANCH 146 147
ATOM    147  O   UNK A  21     -11.310   7.349   4.919  0.00  0.00    -0.393 OA
ATOM    148  H   UNK A  21     -11.852   7.000   4.164  0.00  0.00    +0.209 HD
ENDBRANCH 146 147
ENDBRANCH 142 146
ENDBRANCH 140 142
ENDBRANCH 137 138
BRANCH 137 149
ATOM    149  CB  LYS A  20     -11.973   7.405  -0.259  0.00  0.00    +0.032 C 
BRANCH 149 150
ATOM    150  CG  LYS A  20     -11.498   7.648  -1.702  0.00  0.00    +0.007 C 
BRANCH 150 151
ATOM    151  CD  LYS A  20      -9.978   7.493  -1.886  0.00  0.00    +0.051 C 
BRANCH 151 152
ATOM    152  CE  LYS A  20      -9.390   6.376  -1.024  0.00  0.00    +0.127 C 
BRANCH 152 153
ATOM    153  NZ  LYS A  20      -9.243   5.140  -1.815  0.00  0.00    +0.218 N 
ATOM    154  HZ1 LYS A  20     -10.142   4.682  -2.011  0.00  0.00    +0.199 HD
ATOM    155  HZ2 LYS A  20      -8.613   4.441  -1.407  0.00  0.00    +0.199 HD
ATOM    156  HZ3 LYS A  20      -8.885   5.324  -2.781  0.00  0.00    +0.199 HD
ENDBRANCH 152 153
ENDBRANCH 151 152
ENDBRANCH 150 151
ENDBRANCH 149 150
ENDBRANCH 137 149
ENDBRANCH 135 137
ENDBRANCH 132 133
BRANCH 132 157
ATOM    157  CB  ARG A  19     -13.413  11.233  -3.111  0.00  0.00    +0.035 C 
BRANCH 157 158
ATOM    158  CG  ARG A  19     -14.269  11.378  -4.375  0.00  0.00    +0.039 C 
BRANCH 158 159
ATOM    159  CD  ARG A  19     -13.551  12.159  -5.466  0.00  0.00    +0.196 C 
BRANCH 159 160
ATOM    160  NE  ARG A  19     -13.759  13.603  -5.315  0.00  0.00    -0.279 N 
ATOM    161  CZ  ARG A  19     -14.498  14.340  -6.155  0.00  0.00    +0.341 C 
ATOM    162  NH1 ARG A  19     -14.965  13.846  -7.306  0.00  0.00    -0.292 N 
ATOM    163  NH2 ARG A  19     -14.775  15.610  -5.847  0.00  0.00    -0.292 N 
ATOM    164  HE  ARG A  19     -13.407  14.044  -4.473  0.00  0.00    +0.258 HD
ATOM    165 HH11 ARG A  19     -14.784  12.886  -7.572  0.00  0.00    +0.255 HD
ATOM    166 HH12 ARG A  19     -15.555  14.386  -7.924  0.00  0.00    +0.255 HD
ATOM    167 HH21 ARG A  19     -14.524  15.990  -4.943  0.00  0.00    +0.255 HD
ATOM    168 HH22 ARG A  19     -15.385  16.167  -6.431  0.00  0.00    +0.255 HD
ENDBRANCH 159 160
ENDBRANCH 158 159
ENDBRANCH 157 158
ENDBRANCH 132 157
ENDBRANCH 130 132
ENDBRANCH 126 128
ENDBRANCH 124 126
ENDBRANCH 121 122
BRANCH 121 169
ATOM    169  CB  ILE A  17     -16.782  16.495   1.829  0.00  0.00    +0.015 C 
ATOM    170  CG2 ILE A  17     -18.170  16.981   1.388  0.00  0.00    +0.010 C 
BRANCH 169 171
ATOM    171  CG1 ILE A  17     -16.324  17.183   3.126  0.00  0.00    +0.002 C 
ATOM    172  CD1 ILE A  17     -17.223  18.334   3.560  0.00  0.00    +0.004 C 
ENDBRANCH 169 171
ENDBRANCH 121 169
ENDBRANCH 119 121
ENDBRANCH 116 117
BRANCH 116 173
ATOM    173  CB  LYS A  16     -19.180  13.453   5.561  0.00  0.00    +0.032 C 
BRANCH 173 174
ATOM    174  CG  LYS A  16     -19.282  13.152   7.064  0.00  0.00    +0.007 C 
BRANCH 174 175
ATOM    175  CD  LYS A  16     -19.497  11.655   7.316  0.00  0.00    +0.051 C 
BRANCH 175 176
ATOM    176  CE  LYS A  16     -20.393  11.357   8.514  0.00  0.00    +0.127 C 
BRANCH 176 177
ATOM    177  NZ  LYS A  16     -21.509  12.326   8.594  0.00  0.00    +0.218 N 
ATOM    178  HZ1 LYS A  16     -21.180  13.282   8.780  0.00  0.00    +0.199 HD
ATOM    179  HZ2 LYS A  16     -22.152  12.076   9.360  0.00  0.00    +0.199 HD
ATOM    180  HZ3 LYS A  16     -22.066  12.340   7.729  0.00  0.00    +0.199 HD
ENDBRANCH 176 177
ENDBRANCH 175 176
ENDBRANCH 174 175
ENDBRANCH 173 174
ENDBRANCH 116 173
ENDBRANCH 114 116
ENDBRANCH 111 112
BRANCH 111 181
ATOM    181  CB  LYS A  15     -12.984  12.527   5.672  0.00  0.00    +0.032 C 
BRANCH 181 182
ATOM    182  CG  LYS A  15     -12.113  13.277   4.662  0.00  0.00    +0.007 C 
BRANCH 182 183
ATOM    183  CD  LYS A  15     -12.503  14.763   4.661  0.00  0.00    +0.051 C 
BRANCH 183 184
ATOM    184  CE  LYS A  15     -11.425  15.648   5.264  0.00  0.00    +0.127 C 
BRANCH 184 185
ATOM    185  NZ  LYS A  15     -12.072  16.767   5.994  0.00  0.00    +0.218 N 
ATOM    186  HZ1 LYS A  15     -12.646  17.347   5.364  0.00  0.00    +0.199 HD
ATOM    187  HZ2 LYS A  15     -11.379  17.395   6.422  0.00  0.00    +0.199 HD
ATOM    188  HZ3 LYS A  15     -12.691  16.434   6.746  0.00  0.00    +0.199 HD
ENDBRANCH 184 185
ENDBRANCH 183 184
ENDBRANCH 182 183
ENDBRANCH 181 182
ENDBRANCH 111 181
ENDBRANCH 109 111
ENDBRANCH 106 107
BRANCH 106 189
ATOM    189  CB  LEU A  14     -14.570  14.740  10.791  0.00  0.00    +0.034 C 
BRANCH 189 190
ATOM    190  CG  LEU A  14     -16.090  14.811  11.045  0.00  0.00    -0.015 C 
ATOM    191  CD1 LEU A  14     -16.782  15.879  10.197  0.00  0.00    +0.007 C 
ATOM    192  CD2 LEU A  14     -16.719  13.443  10.767  0.00  0.00    +0.007 C 
ENDBRANCH 189 190
ENDBRANCH 106 189
ENDBRANCH 104 106
ENDBRANCH 101 102
BRANCH 101 193
ATOM    193  CB  ILE A  13     -10.335  12.639  11.634  0.00  0.00    +0.015 C 
ATOM    194  CG2 ILE A  13      -9.735  13.077  12.978  0.00  0.00    +0.010 C 
BRANCH 193 195
ATOM    195  CG1 ILE A  13      -9.219  12.127  10.692  0.00  0.00    +0.002 C 
ATOM    196  CD1 ILE A  13      -7.842  12.092  11.341  0.00  0.00    +0.004 C 
ENDBRANCH 193 195
ENDBRANCH 101 193
ENDBRANCH  99 101
ENDBRANCH   1  97
BRANCH   1 197
ATOM    197  CB  GLN A  12     -10.169   8.341   9.601  0.00  0.00    +0.041 C 
BRANCH 197 198
ATOM    198  CG  GLN A  12     -10.992   8.060   8.349  0.00  0.00    +0.098 C 
BRANCH 198 199
ATOM    199  CD  GLN A  12     -11.442   9.361   7.726  0.00  0.00    +0.211 C 
ATOM    200  OE1 GLN A  12     -10.860   9.893   6.787  0.00  0.00    -0.276 OA
ATOM    201  NE2 GLN A  12     -12.580   9.889   8.253  0.00  0.00    -0.329 N 
ATOM    202 HE21 GLN A  12     -12.851   9.656   9.210  0.00  0.00    +0.145 HD
ATOM    203 HE22 GLN A  12     -12.846  10.808   7.924  0.00  0.00    +0.145 HD
ENDBRANCH 198 199
ENDBRANCH 197 198
ENDBRANCH   1 197
TORSDOF 85
ENDMDL
MODEL 8
REMARK minimizedAffinity -4.93037891
REMARK minimizedRMSD -1
REMARK  Name = crb16.pdb
REMARK  102 active torsions:
REMARK  status: ('A' for Active; 'I' for Inactive)
REMARK    1  A    between atoms: N_1  and  CA_2
REMARK    2  A    between atoms: CA_2  and  C_3
REMARK    3  A    between atoms: CA_2  and  CB_5
REMARK    4  A    between atoms: CB_5  and  CG_6
REMARK    5  A    between atoms: CG_6  and  CD2_7
REMARK    6  A    between atoms: CG_6  and  CD1_8
REMARK    7  A    between atoms: N_9  and  CA_10
REMARK    8  A    between atoms: CA_10  and  C_11
REMARK    9  A    between atoms: CA_10  and  CB_13
REMARK   10  A    between atoms: CB_13  and  CG1_14
REMARK   11  A    between atoms: CB_13  and  CG2_15
REMARK   12  A    between atoms: CG1_14  and  CD1_16
REMARK   13  A    between atoms: N_17  and  CA_18
REMARK   14  A    between atoms: CA_18  and  C_19
REMARK   15  A    between atoms: CA_18  and  CB_21
REMARK   16  A    between atoms: CB_21  and  OG_22
REMARK   17  A    between atoms: N_23  and  CA_24
REMARK   18  A    between atoms: CA_24  and  C_25
REMARK   19  A    between atoms: N_27  and  CA_28
REMARK   20  A    between atoms: CA_28  and  C_29
REMARK   21  A    between atoms: CA_28  and  CB_31
REMARK   22  A    between atoms: CB_31  and  CG_32
REMARK   23  A    between atoms: CG_32  and  CD2_33
REMARK   24  A    between atoms: CG_32  and  CD1_34
REMARK   25  A    between atoms: N_35  and  CA_36
REMARK   26  A    between atoms: CA_36  and  C_37
REMARK   27  A    between atoms: CA_36  and  CB_39
REMARK   28  A    between atoms: N_40  and  CA_41
REMARK   29  A    between atoms: CA_41  and  C_42
REMARK   30  A    between atoms: CA_41  and  CB_44
REMARK   31  A    between atoms: N_45  and  CA_46
REMARK   32  A    between atoms: CA_46  and  C_47
REMARK   33  A    between atoms: CA_46  and  CB_49
REMARK   34  A    between atoms: CB_49  and  CG_50
REMARK   35  A    between atoms: N_53  and  CA_54
REMARK   36  A    between atoms: CA_54  and  C_55
REMARK   37  A    between atoms: CA_54  and  CB_57
REMARK   38  A    between atoms: CB_57  and  CG_58
REMARK   39  A    between atoms: N_64  and  CA_65
REMARK   40  A    between atoms: CA_65  and  C_66
REMARK   41  A    between atoms: CA_65  and  CB_68
REMARK   42  A    between atoms: CB_68  and  CG_69
REMARK   43  A    between atoms: CG_69  and  CD2_70
REMARK   44  A    between atoms: CG_69  and  CD1_71
REMARK   45  A    between atoms: CA_73  and  C_74
REMARK   46  A    between atoms: N_79  and  CA_80
REMARK   47  A    between atoms: CA_80  and  C_81
REMARK   48  A    between atoms: CA_80  and  CB_83
REMARK   49  A    between atoms: CB_83  and  CG_84
REMARK   50  A    between atoms: CG_84  and  CD_85
REMARK   51  A    between atoms: N_88  and  CA_89
REMARK   52  A    between atoms: CA_89  and  C_90
REMARK   53  A    between atoms: CA_89  and  CB_92
REMARK   54  A    between atoms: CB_92  and  CG1_93
REMARK   55  A    between atoms: CB_92  and  CG2_94
REMARK   56  A    between atoms: CG1_93  and  CD1_95
REMARK   57  A    between atoms: N_96  and  CA_97
REMARK   58  A    between atoms: CA_97  and  C_98
REMARK   59  A    between atoms: CA_97  and  CB_100
REMARK   60  A    between atoms: CB_100  and  CG_101
REMARK   61  A    between atoms: CG_101  and  CD1_102
REMARK   62  A    between atoms: CG_101  and  CD2_103
REMARK   63  A    between atoms: N_104  and  CA_105
REMARK   64  A    between atoms: CA_105  and  C_106
REMARK   65  A    between atoms: CA_105  and  CB_108
REMARK   66  A    between atoms: CB_108  and  CG_109
REMARK   67  A    between atoms: CG_109  and  CD_110
REMARK   68  A    between atoms: CD_110  and  CE_111
REMARK   69  A    between atoms: CE_111  and  NZ_112
REMARK   70  A    between atoms: N_113  and  CA_114
REMARK   71  A    between atoms: CA_114  and  C_115
REMARK   72  A    between atoms: CA_114  and  CB_117
REMARK   73  A    between atoms: CB_117  and  CG_118
REMARK   74  A    between atoms: CG_118  and  CD_119
REMARK   75  A    between atoms: CD_119  and  CE_120
REMARK   76  A    between atoms: CE_120  and  NZ_121
REMARK   77  A    between atoms: N_122  and  CA_123
REMARK   78  A    between atoms: CA_123  and  C_124
REMARK   79  A    between atoms: CA_123  and  CB_126
REMARK   80  A    between atoms: CB_126  and  CG1_127
REMARK   81  A    between atoms: CB_126  and  CG2_128
REMARK   82  A    between atoms: CG1_127  and  CD1_129
REMARK   83  A    between atoms: N_130  and  CA_131
REMARK   84  A    between atoms: CA_131  and  C_132
REMARK   85  A    between atoms: CA_131  and  CB_134
REMARK   86  A    between atoms: N_135  and  CA_136
REMARK   87  A    between atoms: CA_136  and  C_137
REMARK   88  A    between atoms: CA_136  and  CB_139
REMARK   89  A    between atoms: CB_139  and  CG_140
REMARK   90  A    between atoms: CG_140  and  CD_141
REMARK   91  A    between atoms: CD_141  and  NE_142
REMARK   92  A    between atoms: N_146  and  CA_147
REMARK   93  A    between atoms: CA_147  and  C_148
REMARK   94  A    between atoms: CA_147  and  CB_150
REMARK   95  A    between atoms: CB_150  and  CG_151
REMARK   96  A    between atoms: CG_151  and  CD_152
REMARK   97  A    between atoms: CD_152  and  CE_153
REMARK   98  A    between atoms: CE_153  and  NZ_154
REMARK   99  A    between atoms: N_155  and  C_156
REMARK  100  A    between atoms: C_156  and  C_157
REMARK  101  A    between atoms: C_156  and  C_159
REMARK  102  A    between atoms: C_159  and  O_160
REMARK                            x       y       z     vdW  Elec       q    Type
REMARK                         _______ _______ _______ _____ _____    ______ ____
ROOT
ATOM      1  CA  GLN A  12     -12.284  11.167  -2.713  0.00  0.00    +0.159 C 
ENDROOT
BRANCH   1   4
ATOM      2  C   PRO A  11     -12.357   8.805  -3.428  0.00  0.00    +0.234 C 
ATOM      3  O   PRO A  11     -13.389   9.001  -4.070  0.00  0.00    -0.274 OA
ATOM      4  N   GLN A  12     -11.791   9.792  -2.647  0.00  0.00    -0.302 N 
ATOM      5  H   GLN A  12     -10.829   9.641  -2.355  0.00  0.00    +0.149 HD
BRANCH   2   9
ATOM      6  C   LEU A  10     -10.985   7.110  -5.705  0.00  0.00    +0.236 C 
ATOM      7  O   LEU A  10     -12.178   7.115  -6.043  0.00  0.00    -0.274 OA
ATOM      8  N   PRO A  11     -10.644   7.256  -4.377  0.00  0.00    -0.288 N 
ATOM      9  CA  PRO A  11     -11.695   7.414  -3.372  0.00  0.00    +0.162 C 
ATOM     10  CB  PRO A  11     -10.999   7.187  -2.030  0.00  0.00    +0.033 C 
ATOM     11  CG  PRO A  11      -9.542   7.521  -2.317  0.00  0.00    +0.021 C 
ATOM     12  CD  PRO A  11      -9.353   7.024  -3.740  0.00  0.00    +0.109 C 
BRANCH   6  13
ATOM     13  CA  LEU A  10      -9.877   6.941  -6.785  0.00  0.00    +0.159 C 
BRANCH  13  16
ATOM     14  C   PHE A   9      -9.473   4.582  -7.376  0.00  0.00    +0.234 C 
ATOM     15  O   PHE A   9      -8.744   4.449  -6.389  0.00  0.00    -0.274 OA
ATOM     16  N   LEU A  10     -10.105   5.777  -7.641  0.00  0.00    -0.302 N 
ATOM     17  H   LEU A  10     -10.504   5.920  -8.571  0.00  0.00    +0.149 HD
BRANCH  14  18
ATOM     18  CA  PHE A   9      -9.656   3.450  -8.403  0.00  0.00    +0.163 C 
BRANCH  18  21
ATOM     19  C   ASN A   8     -10.838   3.283 -10.580  0.00  0.00    +0.234 C 
ATOM     20  O   ASN A   8     -11.186   2.123 -10.359  0.00  0.00    -0.274 OA
ATOM     21  N   PHE A   9     -10.042   3.990  -9.707  0.00  0.00    -0.302 N 
ATOM     22  H   PHE A   9      -9.965   4.993  -9.864  0.00  0.00    +0.149 HD
BRANCH  19  23
ATOM     23  CA  ASN A   8     -11.172   3.996 -11.906  0.00  0.00    +0.168 C 
BRANCH  23  26
ATOM     24  C   ALA A   7     -10.367   6.185 -12.769  0.00  0.00    +0.234 C 
ATOM     25  O   ALA A   7     -11.495   6.669 -12.802  0.00  0.00    -0.274 OA
ATOM     26  N   ASN A   8     -10.105   4.909 -12.317  0.00  0.00    -0.302 N 
ATOM     27  H   ASN A   8      -9.139   4.597 -12.325  0.00  0.00    +0.149 HD
BRANCH  24  28
ATOM     28  CA  ALA A   7      -9.138   6.909 -13.350  0.00  0.00    +0.156 C 
ATOM     29  CB  ALA A   7      -9.017   8.232 -12.595  0.00  0.00    +0.037 C 
BRANCH  28  32
ATOM     30  C   ALA A   6     -10.133   8.103 -15.289  0.00  0.00    +0.234 C 
ATOM     31  O   ALA A   6     -10.518   9.047 -14.594  0.00  0.00    -0.274 OA
ATOM     32  N   ALA A   7      -9.259   7.144 -14.798  0.00  0.00    -0.303 N 
ATOM     33  H   ALA A   7      -9.206   6.303 -15.374  0.00  0.00    +0.149 HD
BRANCH  30  34
ATOM     34  CA  ALA A   6     -10.351   8.046 -16.817  0.00  0.00    +0.156 C 
ATOM     35  CB  ALA A   6      -9.035   8.168 -17.578  0.00  0.00    +0.037 C 
BRANCH  34  38
ATOM     36  C   LEU A   5     -11.957   8.851 -18.483  0.00  0.00    +0.234 C 
ATOM     37  O   LEU A   5     -11.948   7.753 -19.036  0.00  0.00    -0.274 OA
ATOM     38  N   ALA A   6     -11.282   9.066 -17.286  0.00  0.00    -0.303 N 
ATOM     39  H   ALA A   6     -11.069  10.030 -17.040  0.00  0.00    +0.149 HD
BRANCH  36  40
ATOM     40  CA  LEU A   5     -12.505  10.115 -19.183  0.00  0.00    +0.159 C 
BRANCH  40  43
ATOM     41  C   GLY A   4     -14.068  11.657 -18.045  0.00  0.00    +0.231 C 
ATOM     42  O   GLY A   4     -14.955  11.469 -18.871  0.00  0.00    -0.274 OA
ATOM     43  N   LEU A   5     -12.797  11.139 -18.177  0.00  0.00    -0.303 N 
ATOM     44  H   LEU A   5     -12.186  11.197 -17.374  0.00  0.00    +0.149 HD
BRANCH  41  45
ATOM     45  CA  GLY A   4     -14.291  12.550 -16.819  0.00  0.00    +0.200 C 
BRANCH  45  48
ATOM     46  C   SER A   3     -13.025  11.529 -14.958  0.00  0.00    +0.236 C 
ATOM     47  O   SER A   3     -11.945  11.749 -15.493  0.00  0.00    -0.274 OA
ATOM     48  N   GLY A   4     -14.232  11.839 -15.549  0.00  0.00    -0.305 N 
ATOM     49  H   GLY A   4     -15.054  11.843 -14.957  0.00  0.00    +0.149 HD
BRANCH  46  50
ATOM     50  CA  SER A   3     -13.134  10.791 -13.619  0.00  0.00    +0.184 C 
BRANCH  50  53
ATOM     51  C   ILE A   2     -12.982  12.460 -11.814  0.00  0.00    +0.234 C 
ATOM     52  O   ILE A   2     -11.779  12.607 -12.032  0.00  0.00    -0.274 OA
ATOM     53  N   SER A   3     -13.770  11.655 -12.616  0.00  0.00    -0.301 N 
ATOM     54  H   SER A   3     -14.577  11.226 -12.169  0.00  0.00    +0.150 HD
BRANCH  51  55
ATOM     55  CA  ILE A   2     -13.716  13.115 -10.616  0.00  0.00    +0.162 C 
BRANCH  55  58
ATOM     56  C   LEU A   1     -13.281  11.822  -8.565  0.00  0.00    +0.262 C 
ATOM     57  O   LEU A   1     -14.120  10.975  -8.874  0.00  0.00    -0.270 OA
ATOM     58  N   ILE A   2     -12.958  12.892  -9.370  0.00  0.00    -0.299 N 
ATOM     59  H   ILE A   2     -12.418  13.666  -8.999  0.00  0.00    +0.150 HD
BRANCH  56  60
ATOM     60  CA  LEU A   1     -12.475  11.642  -7.265  0.00  0.00    +0.148 C 
BRANCH  60  61
ATOM     61  N   LEU A   1     -12.512  10.194  -6.867  0.00  0.00    +0.227 N 
ATOM     62  H1  LEU A   1     -13.474   9.890  -6.666  0.00  0.00    +0.200 HD
ATOM     63  H2  LEU A   1     -11.934   9.964  -6.049  0.00  0.00    +0.200 HD
ATOM     64  H3  LEU A   1     -12.208   9.606  -7.661  0.00  0.00    +0.200 HD
ENDBRANCH  60  61
BRANCH  60  65
ATOM     65  CB  LEU A   1     -11.028  12.071  -7.554  0.00  0.00    +0.067 C 
BRANCH  65  66
ATOM     66  CG  LEU A   1     -10.462  13.199  -6.675  0.00  0.00    -0.011 C 
ATOM     67  CD2 LEU A   1      -9.003  12.890  -6.326  0.00  0.00    +0.007 C 
ATOM     68  CD1 LEU A   1     -10.555  14.560  -7.363  0.00  0.00    +0.007 C 
ENDBRANCH  65  66
ENDBRANCH  60  65
ENDBRANCH  56  60
ENDBRANCH  55  58
BRANCH  55  69
ATOM     69  CB  ILE A   2     -14.025  14.608 -10.896  0.00  0.00    +0.015 C 
ATOM     70  CG2 ILE A   2     -14.393  14.792 -12.375  0.00  0.00    +0.010 C 
BRANCH  69  71
ATOM     71  CG1 ILE A   2     -15.101  15.207  -9.964  0.00  0.00    +0.002 C 
ATOM     72  CD1 ILE A   2     -16.389  15.590 -10.682  0.00  0.00    +0.004 C 
ENDBRANCH  69  71
ENDBRANCH  55  69
ENDBRANCH  51  55
ENDBRANCH  50  53
BRANCH  50  73
ATOM     73  CB  SER A   3     -13.947   9.510 -13.809  0.00  0.00    +0.187 C 
BRANCH  73  74
ATOM     74  OG  SER A   3     -13.637   8.949 -15.090  0.00  0.00    -0.393 OA
ATOM     75  H   SER A   3     -14.326   8.281 -15.277  0.00  0.00    +0.209 HD
ENDBRANCH  73  74
ENDBRANCH  50  73
ENDBRANCH  46  50
ENDBRANCH  45  48
ENDBRANCH  41  45
ENDBRANCH  40  43
BRANCH  40  76
ATOM     76  CB  LEU A   5     -11.473  10.667 -20.183  0.00  0.00    +0.034 C 
BRANCH  76  77
ATOM     77  CG  LEU A   5     -12.002  10.922 -21.608  0.00  0.00    -0.015 C 
ATOM     78  CD2 LEU A   5     -13.356  10.259 -21.856  0.00  0.00    +0.007 C 
ATOM     79  CD1 LEU A   5     -12.109  12.430 -21.855  0.00  0.00    +0.007 C 
ENDBRANCH  76  77
ENDBRANCH  40  76
ENDBRANCH  36  40
ENDBRANCH  34  38
ENDBRANCH  30  34
ENDBRANCH  28  32
ENDBRANCH  24  28
ENDBRANCH  23  26
BRANCH  23  80
ATOM     80  CB  ASN A   8     -11.440   2.942 -12.982  0.00  0.00    +0.127 C 
BRANCH  80  81
ATOM     81  CG  ASN A   8     -10.150   2.459 -13.602  0.00  0.00    +0.213 C 
ATOM     82  OD1 ASN A   8      -9.497   3.089 -14.417  0.00  0.00    -0.276 OA
ATOM     83  ND2 ASN A   8      -9.759   1.216 -13.198  0.00  0.00    -0.329 N 
ATOM     84 HD21 ASN A   8     -10.267   0.645 -12.537  0.00  0.00    +0.145 HD
ATOM     85 HD22 ASN A   8      -8.903   0.840 -13.591  0.00  0.00    +0.145 HD
ENDBRANCH  80  81
ENDBRANCH  23  80
ENDBRANCH  19  23
ENDBRANCH  18  21
BRANCH  18  86
ATOM     86  CB  PHE A   9      -8.368   2.629  -8.472  0.00  0.00    +0.067 C 
BRANCH  86  87
ATOM     87  CG  PHE A   9      -8.615   1.157  -8.252  0.00  0.00    -0.045 A 
ATOM     88  CD2 PHE A   9      -7.957   0.197  -9.033  0.00  0.00    +0.003 A 
ATOM     89  CD1 PHE A   9      -9.538   0.731  -7.287  0.00  0.00    +0.003 A 
ATOM     90  CE2 PHE A   9      -8.207  -1.162  -8.847  0.00  0.00    +0.000 A 
ATOM     91  CE1 PHE A   9      -9.786  -0.629  -7.100  0.00  0.00    +0.000 A 
ATOM     92  CZ  PHE A   9      -9.121  -1.575  -7.880  0.00  0.00    +0.000 A 
ENDBRANCH  86  87
ENDBRANCH  18  86
ENDBRANCH  14  18
ENDBRANCH  13  16
BRANCH  13  93
ATOM     93  CB  LEU A  10      -9.733   8.241  -7.587  0.00  0.00    +0.034 C 
BRANCH  93  94
ATOM     94  CG  LEU A  10      -8.505   9.098  -7.218  0.00  0.00    -0.015 C 
ATOM     95  CD2 LEU A  10      -7.401   8.196  -6.663  0.00  0.00    +0.007 C 
ATOM     96  CD1 LEU A  10      -7.960   9.898  -8.404  0.00  0.00    +0.007 C 
ENDBRANCH  93  94
ENDBRANCH  13  93
ENDBRANCH   6  13
ENDBRANCH   2   9
ENDBRANCH   1   4
BRANCH   1  97
ATOM     97  C   GLN A  12     -11.113  12.154  -2.890  0.00  0.00    +0.234 C 
ATOM     98  O   GLN A  12      -9.990  11.776  -3.220  0.00  0.00    -0.274 OA
ATOM     99  N   ILE A  13     -11.430  13.487  -2.749  0.00  0.00    -0.302 N 
ATOM    100  H   ILE A  13     -12.408  13.753  -2.630  0.00  0.00    +0.149 HD
BRANCH  99 101
ATOM    101  CA  ILE A  13     -10.404  14.525  -2.818  0.00  0.00    +0.162 C 
BRANCH 101 102
ATOM    102  C   ILE A  13      -9.847  14.691  -1.385  0.00  0.00    +0.234 C 
ATOM    103  O   ILE A  13      -8.719  14.299  -1.076  0.00  0.00    -0.274 OA
ATOM    104  N   LEU A  14     -10.681  15.308  -0.470  0.00  0.00    -0.302 N 
ATOM    105  H   LEU A  14     -11.463  15.854  -0.842  0.00  0.00    +0.149 HD
BRANCH 104 106
ATOM    106  CA  LEU A  14     -10.197  15.589   0.885  0.00  0.00    +0.159 C 
BRANCH 106 107
ATOM    107  C   LEU A  14     -11.351  15.315   1.882  0.00  0.00    +0.234 C 
ATOM    108  O   LEU A  14     -11.474  15.919   2.947  0.00  0.00    -0.274 OA
ATOM    109  N   LYS A  15     -12.254  14.354   1.484  0.00  0.00    -0.302 N 
ATOM    110  H   LYS A  15     -12.139  13.956   0.550  0.00  0.00    +0.149 HD
BRANCH 109 111
ATOM    111  CA  LYS A  15     -13.465  14.018   2.242  0.00  0.00    +0.159 C 
BRANCH 111 112
ATOM    112  C   LYS A  15     -13.223  12.889   3.280  0.00  0.00    +0.234 C 
ATOM    113  O   LYS A  15     -13.604  11.734   3.086  0.00  0.00    -0.274 OA
ATOM    114  N   LYS A  16     -12.509  13.246   4.403  0.00  0.00    -0.302 N 
ATOM    115  H   LYS A  16     -12.212  14.215   4.487  0.00  0.00    +0.149 HD
BRANCH 114 116
ATOM    116  CA  LYS A  16     -12.358  12.364   5.550  0.00  0.00    +0.159 C 
BRANCH 116 117
ATOM    117  C   LYS A  16     -13.487  12.619   6.570  0.00  0.00    +0.234 C 
ATOM    118  O   LYS A  16     -14.471  11.878   6.615  0.00  0.00    -0.274 OA
ATOM    119  N   ILE A  17     -13.249  13.587   7.526  0.00  0.00    -0.302 N 
ATOM    120  H   ILE A  17     -12.461  14.220   7.405  0.00  0.00    +0.149 HD
BRANCH 119 121
ATOM    121  CA  ILE A  17     -14.257  13.873   8.550  0.00  0.00    +0.162 C 
BRANCH 121 122
ATOM    122  C   ILE A  17     -15.317  14.859   8.020  0.00  0.00    +0.234 C 
ATOM    123  O   ILE A  17     -15.090  16.068   7.965  0.00  0.00    -0.274 OA
ATOM    124  N   ALA A  18     -16.525  14.320   7.647  0.00  0.00    -0.303 N 
ATOM    125  H   ALA A  18     -16.657  13.308   7.675  0.00  0.00    +0.149 HD
BRANCH 124 126
ATOM    126  CA  ALA A  18     -17.675  15.139   7.242  0.00  0.00    +0.156 C 
ATOM    127  CB  ALA A  18     -17.945  14.996   5.750  0.00  0.00    +0.037 C 
BRANCH 126 128
ATOM    128  C   ALA A  18     -18.938  14.787   8.080  0.00  0.00    +0.234 C 
ATOM    129  O   ALA A  18     -18.937  14.621   9.296  0.00  0.00    -0.274 OA
ATOM    130  N   ARG A  19     -20.047  14.509   7.309  0.00  0.00    -0.302 N 
ATOM    131  H   ARG A  19     -20.046  14.809   6.345  0.00  0.00    +0.149 HD
BRANCH 130 132
ATOM    132  CA  ARG A  19     -21.161  13.679   7.744  0.00  0.00    +0.159 C 
BRANCH 132 133
ATOM    133  C   ARG A  19     -22.206  14.606   8.421  0.00  0.00    +0.234 C 
ATOM    134  O   ARG A  19     -22.831  15.475   7.815  0.00  0.00    -0.274 OA
ATOM    135  N   LYS A  20     -22.295  14.479   9.789  0.00  0.00    -0.302 N 
ATOM    136  H   LYS A  20     -21.884  13.675  10.264  0.00  0.00    +0.149 HD
BRANCH 135 137
ATOM    137  CA  LYS A  20     -23.048  15.423  10.605  0.00  0.00    +0.159 C 
BRANCH 137 138
ATOM    138  C   LYS A  20     -22.111  16.197  11.557  0.00  0.00    +0.234 C 
ATOM    139  O   LYS A  20     -20.906  16.316  11.325  0.00  0.00    -0.274 OA
ATOM    140  N   UNK A  21     -22.717  16.682  12.688  0.00  0.00    -0.304 N 
ATOM    141  H   UNK A  21     -23.601  16.238  12.920  0.00  0.00    +0.149 HD
BRANCH 140 142
ATOM    142  C   UNK A  21     -21.949  16.892  13.928  0.00  0.00    +0.144 C 
BRANCH 142 143
ATOM    143  C   UNK A  21     -22.799  16.436  15.150  0.00  0.00    +0.064 C 
ATOM    144  O   UNK A  21     -22.196  16.420  16.255  0.00  0.00    -0.548 OA
ATOM    145  O   UNK A  21     -23.955  16.014  14.827  0.00  0.00    -0.548 OA
ENDBRANCH 142 143
BRANCH 142 146
ATOM    146  C   UNK A  21     -21.680  18.384  14.131  0.00  0.00    +0.184 C 
BRANCH 146 147
ATOM    147  O   UNK A  21     -20.700  18.605  15.159  0.00  0.00    -0.393 OA
ATOM    148  H   UNK A  21     -19.930  18.052  14.867  0.00  0.00    +0.209 HD
ENDBRANCH 146 147
ENDBRANCH 142 146
ENDBRANCH 140 142
ENDBRANCH 137 138
BRANCH 137 149
ATOM    149  CB  LYS A  20     -24.181  14.714  11.365  0.00  0.00    +0.032 C 
BRANCH 149 150
ATOM    150  CG  LYS A  20     -25.566  14.967  10.745  0.00  0.00    +0.007 C 
BRANCH 150 151
ATOM    151  CD  LYS A  20     -25.758  14.301   9.371  0.00  0.00    +0.051 C 
BRANCH 151 152
ATOM    152  CE  LYS A  20     -25.581  12.784   9.419  0.00  0.00    +0.127 C 
BRANCH 152 153
ATOM    153  NZ  LYS A  20     -26.064  12.169   8.168  0.00  0.00    +0.218 N 
ATOM    154  HZ1 LYS A  20     -27.088  12.169   8.094  0.00  0.00    +0.199 HD
ATOM    155  HZ2 LYS A  20     -25.734  11.212   8.005  0.00  0.00    +0.199 HD
ATOM    156  HZ3 LYS A  20     -25.790  12.719   7.321  0.00  0.00    +0.199 HD
ENDBRANCH 152 153
ENDBRANCH 151 152
ENDBRANCH 150 151
ENDBRANCH 149 150
ENDBRANCH 137 149
ENDBRANCH 135 137
ENDBRANCH 132 133
BRANCH 132 157
ATOM    157  CB  ARG A  19     -20.663  12.569   8.677  0.00  0.00    +0.035 C 
BRANCH 157 158
ATOM    158  CG  ARG A  19     -20.058  11.373   7.934  0.00  0.00    +0.039 C 
BRANCH 158 159
ATOM    159  CD  ARG A  19     -19.372  10.398   8.880  0.00  0.00    +0.196 C 
BRANCH 159 160
ATOM    160  NE  ARG A  19     -17.931  10.322   8.615  0.00  0.00    -0.279 N 
ATOM    161  CZ  ARG A  19     -17.011  11.017   9.297  0.00  0.00    +0.341 C 
ATOM    162  NH1 ARG A  19     -17.348  11.976  10.164  0.00  0.00    -0.292 N 
ATOM    163  NH2 ARG A  19     -15.714  10.757   9.104  0.00  0.00    -0.292 N 
ATOM    164  HE  ARG A  19     -17.612   9.629   7.947  0.00  0.00    +0.258 HD
ATOM    165 HH11 ARG A  19     -18.320  12.197  10.343  0.00  0.00    +0.255 HD
ATOM    166 HH12 ARG A  19     -16.659  12.475  10.709  0.00  0.00    +0.255 HD
ATOM    167 HH21 ARG A  19     -15.422   9.975   8.532  0.00  0.00    +0.255 HD
ATOM    168 HH22 ARG A  19     -15.003  11.222   9.654  0.00  0.00    +0.255 HD
ENDBRANCH 159 160
ENDBRANCH 158 159
ENDBRANCH 157 158
ENDBRANCH 132 157
ENDBRANCH 130 132
ENDBRANCH 126 128
ENDBRANCH 124 126
ENDBRANCH 121 122
BRANCH 121 169
ATOM    169  CB  ILE A  17     -13.688  14.301   9.922  0.00  0.00    +0.015 C 
ATOM    170  CG2 ILE A  17     -14.840  14.570  10.901  0.00  0.00    +0.010 C 
BRANCH 169 171
ATOM    171  CG1 ILE A  17     -12.663  13.314  10.506  0.00  0.00    +0.002 C 
ATOM    172  CD1 ILE A  17     -11.321  13.953  10.843  0.00  0.00    +0.004 C 
ENDBRANCH 169 171
ENDBRANCH 121 169
ENDBRANCH 119 121
ENDBRANCH 116 117
BRANCH 116 173
ATOM    173  CB  LYS A  16     -10.982  12.554   6.208  0.00  0.00    +0.032 C 
BRANCH 173 174
ATOM    174  CG  LYS A  16     -10.496  11.313   6.972  0.00  0.00    +0.007 C 
BRANCH 174 175
ATOM    175  CD  LYS A  16     -10.698  10.038   6.145  0.00  0.00    +0.051 C 
BRANCH 175 176
ATOM    176  CE  LYS A  16     -10.802   8.771   6.987  0.00  0.00    +0.127 C 
BRANCH 176 177
ATOM    177  NZ  LYS A  16     -10.209   7.614   6.280  0.00  0.00    +0.218 N 
ATOM    178  HZ1 LYS A  16     -10.730   7.371   5.429  0.00  0.00    +0.199 HD
ATOM    179  HZ2 LYS A  16     -10.215   6.778   6.883  0.00  0.00    +0.199 HD
ATOM    180  HZ3 LYS A  16      -9.229   7.787   6.019  0.00  0.00    +0.199 HD
ENDBRANCH 176 177
ENDBRANCH 175 176
ENDBRANCH 174 175
ENDBRANCH 173 174
ENDBRANCH 116 173
ENDBRANCH 114 116
ENDBRANCH 111 112
BRANCH 111 181
ATOM    181  CB  LYS A  15     -14.560  13.625   1.240  0.00  0.00    +0.032 C 
BRANCH 181 182
ATOM    182  CG  LYS A  15     -16.009  13.837   1.682  0.00  0.00    +0.007 C 
BRANCH 182 183
ATOM    183  CD  LYS A  15     -16.283  15.342   1.817  0.00  0.00    +0.051 C 
BRANCH 183 184
ATOM    184  CE  LYS A  15     -17.740  15.642   2.129  0.00  0.00    +0.127 C 
BRANCH 184 185
ATOM    185  NZ  LYS A  15     -18.460  15.906   0.858  0.00  0.00    +0.218 N 
ATOM    186  HZ1 LYS A  15     -18.066  16.719   0.362  0.00  0.00    +0.199 HD
ATOM    187  HZ2 LYS A  15     -19.455  16.114   1.018  0.00  0.00    +0.199 HD
ATOM    188  HZ3 LYS A  15     -18.415  15.107   0.212  0.00  0.00    +0.199 HD
ENDBRANCH 184 185
ENDBRANCH 183 184
ENDBRANCH 182 183
ENDBRANCH 181 182
ENDBRANCH 111 181
ENDBRANCH 109 111
ENDBRANCH 106 107
BRANCH 106 189
ATOM    189  CB  LEU A  14      -9.706  17.036   0.991  0.00  0.00    +0.034 C 
BRANCH 189 190
ATOM    190  CG  LEU A  14      -8.361  17.219   1.723  0.00  0.00    -0.015 C 
ATOM    191  CD1 LEU A  14      -8.517  17.894   3.087  0.00  0.00    +0.007 C 
ATOM    192  CD2 LEU A  14      -7.683  15.857   1.896  0.00  0.00    +0.007 C 
ENDBRANCH 189 190
ENDBRANCH 106 189
ENDBRANCH 104 106
ENDBRANCH 101 102
BRANCH 101 193
ATOM    193  CB  ILE A  13     -10.962  15.843  -3.404  0.00  0.00    +0.015 C 
ATOM    194  CG2 ILE A  13      -9.934  16.530  -4.314  0.00  0.00    +0.010 C 
BRANCH 193 195
ATOM    195  CG1 ILE A  13     -12.265  15.558  -4.188  0.00  0.00    +0.002 C 
ATOM    196  CD1 ILE A  13     -13.485  16.272  -3.622  0.00  0.00    +0.004 C 
ENDBRANCH 193 195
ENDBRANCH 101 193
ENDBRANCH  99 101
ENDBRANCH   1  97
BRANCH   1 197
ATOM    197  CB  GLN A  12     -13.073  11.567  -1.469  0.00  0.00    +0.041 C 
BRANCH 197 198
ATOM    198  CG  GLN A  12     -12.929  10.559  -0.334  0.00  0.00    +0.098 C 
BRANCH 198 199
ATOM    199  CD  GLN A  12     -14.229   9.812  -0.143  0.00  0.00    +0.211 C 
ATOM    200  OE1 GLN A  12     -15.307  10.372   0.027  0.00  0.00    -0.276 OA
ATOM    201  NE2 GLN A  12     -14.132   8.458  -0.218  0.00  0.00    -0.329 N 
ATOM    202 HE21 GLN A  12     -13.241   8.002  -0.012  0.00  0.00    +0.145 HD
ATOM    203 HE22 GLN A  12     -14.966   7.932   0.007  0.00  0.00    +0.145 HD
ENDBRANCH 198 199
ENDBRANCH 197 198
ENDBRANCH   1 197
TORSDOF 85
ENDMDL
MODEL 9
REMARK minimizedAffinity -4.91486979
REMARK minimizedRMSD -1
REMARK  Name = crb16.pdb
REMARK  102 active torsions:
REMARK  status: ('A' for Active; 'I' for Inactive)
REMARK    1  A    between atoms: N_1  and  CA_2
REMARK    2  A    between atoms: CA_2  and  C_3
REMARK    3  A    between atoms: CA_2  and  CB_5
REMARK    4  A    between atoms: CB_5  and  CG_6
REMARK    5  A    between atoms: CG_6  and  CD2_7
REMARK    6  A    between atoms: CG_6  and  CD1_8
REMARK    7  A    between atoms: N_9  and  CA_10
REMARK    8  A    between atoms: CA_10  and  C_11
REMARK    9  A    between atoms: CA_10  and  CB_13
REMARK   10  A    between atoms: CB_13  and  CG1_14
REMARK   11  A    between atoms: CB_13  and  CG2_15
REMARK   12  A    between atoms: CG1_14  and  CD1_16
REMARK   13  A    between atoms: N_17  and  CA_18
REMARK   14  A    between atoms: CA_18  and  C_19
REMARK   15  A    between atoms: CA_18  and  CB_21
REMARK   16  A    between atoms: CB_21  and  OG_22
REMARK   17  A    between atoms: N_23  and  CA_24
REMARK   18  A    between atoms: CA_24  and  C_25
REMARK   19  A    between atoms: N_27  and  CA_28
REMARK   20  A    between atoms: CA_28  and  C_29
REMARK   21  A    between atoms: CA_28  and  CB_31
REMARK   22  A    between atoms: CB_31  and  CG_32
REMARK   23  A    between atoms: CG_32  and  CD2_33
REMARK   24  A    between atoms: CG_32  and  CD1_34
REMARK   25  A    between atoms: N_35  and  CA_36
REMARK   26  A    between atoms: CA_36  and  C_37
REMARK   27  A    between atoms: CA_36  and  CB_39
REMARK   28  A    between atoms: N_40  and  CA_41
REMARK   29  A    between atoms: CA_41  and  C_42
REMARK   30  A    between atoms: CA_41  and  CB_44
REMARK   31  A    between atoms: N_45  and  CA_46
REMARK   32  A    between atoms: CA_46  and  C_47
REMARK   33  A    between atoms: CA_46  and  CB_49
REMARK   34  A    between atoms: CB_49  and  CG_50
REMARK   35  A    between atoms: N_53  and  CA_54
REMARK   36  A    between atoms: CA_54  and  C_55
REMARK   37  A    between atoms: CA_54  and  CB_57
REMARK   38  A    between atoms: CB_57  and  CG_58
REMARK   39  A    between atoms: N_64  and  CA_65
REMARK   40  A    between atoms: CA_65  and  C_66
REMARK   41  A    between atoms: CA_65  and  CB_68
REMARK   42  A    between atoms: CB_68  and  CG_69
REMARK   43  A    between atoms: CG_69  and  CD2_70
REMARK   44  A    between atoms: CG_69  and  CD1_71
REMARK   45  A    between atoms: CA_73  and  C_74
REMARK   46  A    between atoms: N_79  and  CA_80
REMARK   47  A    between atoms: CA_80  and  C_81
REMARK   48  A    between atoms: CA_80  and  CB_83
REMARK   49  A    between atoms: CB_83  and  CG_84
REMARK   50  A    between atoms: CG_84  and  CD_85
REMARK   51  A    between atoms: N_88  and  CA_89
REMARK   52  A    between atoms: CA_89  and  C_90
REMARK   53  A    between atoms: CA_89  and  CB_92
REMARK   54  A    between atoms: CB_92  and  CG1_93
REMARK   55  A    between atoms: CB_92  and  CG2_94
REMARK   56  A    between atoms: CG1_93  and  CD1_95
REMARK   57  A    between atoms: N_96  and  CA_97
REMARK   58  A    between atoms: CA_97  and  C_98
REMARK   59  A    between atoms: CA_97  and  CB_100
REMARK   60  A    between atoms: CB_100  and  CG_101
REMARK   61  A    between atoms: CG_101  and  CD1_102
REMARK   62  A    between atoms: CG_101  and  CD2_103
REMARK   63  A    between atoms: N_104  and  CA_105
REMARK   64  A    between atoms: CA_105  and  C_106
REMARK   65  A    between atoms: CA_105  and  CB_108
REMARK   66  A    between atoms: CB_108  and  CG_109
REMARK   67  A    between atoms: CG_109  and  CD_110
REMARK   68  A    between atoms: CD_110  and  CE_111
REMARK   69  A    between atoms: CE_111  and  NZ_112
REMARK   70  A    between atoms: N_113  and  CA_114
REMARK   71  A    between atoms: CA_114  and  C_115
REMARK   72  A    between atoms: CA_114  and  CB_117
REMARK   73  A    between atoms: CB_117  and  CG_118
REMARK   74  A    between atoms: CG_118  and  CD_119
REMARK   75  A    between atoms: CD_119  and  CE_120
REMARK   76  A    between atoms: CE_120  and  NZ_121
REMARK   77  A    between atoms: N_122  and  CA_123
REMARK   78  A    between atoms: CA_123  and  C_124
REMARK   79  A    between atoms: CA_123  and  CB_126
REMARK   80  A    between atoms: CB_126  and  CG1_127
REMARK   81  A    between atoms: CB_126  and  CG2_128
REMARK   82  A    between atoms: CG1_127  and  CD1_129
REMARK   83  A    between atoms: N_130  and  CA_131
REMARK   84  A    between atoms: CA_131  and  C_132
REMARK   85  A    between atoms: CA_131  and  CB_134
REMARK   86  A    between atoms: N_135  and  CA_136
REMARK   87  A    between atoms: CA_136  and  C_137
REMARK   88  A    between atoms: CA_136  and  CB_139
REMARK   89  A    between atoms: CB_139  and  CG_140
REMARK   90  A    between atoms: CG_140  and  CD_141
REMARK   91  A    between atoms: CD_141  and  NE_142
REMARK   92  A    between atoms: N_146  and  CA_147
REMARK   93  A    between atoms: CA_147  and  C_148
REMARK   94  A    between atoms: CA_147  and  CB_150
REMARK   95  A    between atoms: CB_150  and  CG_151
REMARK   96  A    between atoms: CG_151  and  CD_152
REMARK   97  A    between atoms: CD_152  and  CE_153
REMARK   98  A    between atoms: CE_153  and  NZ_154
REMARK   99  A    between atoms: N_155  and  C_156
REMARK  100  A    between atoms: C_156  and  C_157
REMARK  101  A    between atoms: C_156  and  C_159
REMARK  102  A    between atoms: C_159  and  O_160
REMARK                            x       y       z     vdW  Elec       q    Type
REMARK                         _______ _______ _______ _____ _____    ______ ____
ROOT
ATOM      1  CA  GLN A  12     -10.754   6.955   5.903  0.00  0.00    +0.159 C 
ENDROOT
BRANCH   1   4
ATOM      2  C   PRO A  11     -11.539   4.615   5.924  0.00  0.00    +0.234 C 
ATOM      3  O   PRO A  11     -12.541   4.914   5.274  0.00  0.00    -0.274 OA
ATOM      4  N   GLN A  12     -10.648   5.573   6.364  0.00  0.00    -0.302 N 
ATOM      5  H   GLN A  12      -9.737   5.237   6.668  0.00  0.00    +0.149 HD
BRANCH   2   9
ATOM      6  C   LEU A  10     -13.562   2.331   6.720  0.00  0.00    +0.236 C 
ATOM      7  O   LEU A  10     -13.698   3.154   7.636  0.00  0.00    -0.274 OA
ATOM      8  N   PRO A  11     -12.372   2.263   6.026  0.00  0.00    -0.288 N 
ATOM      9  CA  PRO A  11     -11.276   3.165   6.377  0.00  0.00    +0.162 C 
ATOM     10  CB  PRO A  11     -10.044   2.584   5.682  0.00  0.00    +0.033 C 
ATOM     11  CG  PRO A  11     -10.627   1.783   4.525  0.00  0.00    +0.021 C 
ATOM     12  CD  PRO A  11     -11.911   1.224   5.112  0.00  0.00    +0.109 C 
BRANCH   6  13
ATOM     13  CA  LEU A  10     -14.737   1.377   6.357  0.00  0.00    +0.159 C 
BRANCH  13  16
ATOM     14  C   PHE A   9     -16.159   0.640   8.231  0.00  0.00    +0.234 C 
ATOM     15  O   PHE A   9     -15.408  -0.316   8.438  0.00  0.00    -0.274 OA
ATOM     16  N   LEU A  10     -15.892   1.555   7.235  0.00  0.00    -0.302 N 
ATOM     17  H   LEU A  10     -16.640   2.187   6.944  0.00  0.00    +0.149 HD
BRANCH  14  18
ATOM     18  CA  PHE A   9     -17.468   0.824   9.018  0.00  0.00    +0.163 C 
BRANCH  18  21
ATOM     19  C   ASN A   8     -17.281   1.120  11.476  0.00  0.00    +0.234 C 
ATOM     20  O   ASN A   8     -17.594  -0.051  11.692  0.00  0.00    -0.274 OA
ATOM     21  N   PHE A   9     -17.248   1.649  10.206  0.00  0.00    -0.302 N 
ATOM     22  H   PHE A   9     -16.794   2.554  10.096  0.00  0.00    +0.149 HD
BRANCH  19  23
ATOM     23  CA  ASN A   8     -17.011   2.116  12.622  0.00  0.00    +0.168 C 
BRANCH  23  26
ATOM     24  C   ALA A   7     -14.923   3.431  12.928  0.00  0.00    +0.234 C 
ATOM     25  O   ALA A   7     -14.564   2.770  13.900  0.00  0.00    -0.274 OA
ATOM     26  N   ASN A   8     -16.077   3.167  12.221  0.00  0.00    -0.302 N 
ATOM     27  H   ASN A   8     -16.291   3.768  11.431  0.00  0.00    +0.149 HD
BRANCH  24  28
ATOM     28  CA  ALA A   7     -14.186   4.705  12.475  0.00  0.00    +0.156 C 
ATOM     29  CB  ALA A   7     -13.669   4.428  11.063  0.00  0.00    +0.037 C 
BRANCH  28  32
ATOM     30  C   ALA A   6     -12.686   6.383  13.526  0.00  0.00    +0.234 C 
ATOM     31  O   ALA A   6     -13.449   7.320  13.274  0.00  0.00    -0.274 OA
ATOM     32  N   ALA A   7     -13.078   5.061  13.376  0.00  0.00    -0.303 N 
ATOM     33  H   ALA A   7     -12.303   4.398  13.384  0.00  0.00    +0.149 HD
BRANCH  30  34
ATOM     34  CA  ALA A   6     -11.352   6.571  14.283  0.00  0.00    +0.156 C 
ATOM     35  CB  ALA A   6     -11.154   5.499  15.349  0.00  0.00    +0.037 C 
BRANCH  34  38
ATOM     36  C   LEU A   5      -9.973   8.456  15.023  0.00  0.00    +0.234 C 
ATOM     37  O   LEU A   5      -8.992   7.972  14.461  0.00  0.00    -0.274 OA
ATOM     38  N   ALA A   6     -11.237   7.892  14.891  0.00  0.00    -0.303 N 
ATOM     39  H   ALA A   6     -11.929   8.134  15.597  0.00  0.00    +0.149 HD
BRANCH  36  40
ATOM     40  CA  LEU A   5      -9.838   9.562  16.094  0.00  0.00    +0.159 C 
BRANCH  40  43
ATOM     41  C   GLY A   4     -10.113   8.956  18.475  0.00  0.00    +0.231 C 
ATOM     42  O   GLY A   4     -11.151   9.600  18.585  0.00  0.00    -0.274 OA
ATOM     43  N   LEU A   5      -9.334   8.976  17.337  0.00  0.00    -0.303 N 
ATOM     44  H   LEU A   5      -8.597   8.289  17.268  0.00  0.00    +0.149 HD
BRANCH  41  45
ATOM     45  CA  GLY A   4      -9.560   8.123  19.637  0.00  0.00    +0.200 C 
BRANCH  45  48
ATOM     46  C   SER A   3     -11.106   6.523  20.713  0.00  0.00    +0.236 C 
ATOM     47  O   SER A   3     -10.871   5.649  19.887  0.00  0.00    -0.274 OA
ATOM     48  N   GLY A   4     -10.552   7.784  20.649  0.00  0.00    -0.305 N 
ATOM     49  H   GLY A   4     -10.608   8.361  21.478  0.00  0.00    +0.149 HD
BRANCH  46  50
ATOM     50  CA  SER A   3     -12.124   6.323  21.840  0.00  0.00    +0.184 C 
BRANCH  50  53
ATOM     51  C   ILE A   2     -14.247   5.074  21.841  0.00  0.00    +0.234 C 
ATOM     52  O   ILE A   2     -14.875   6.115  22.038  0.00  0.00    -0.274 OA
ATOM     53  N   SER A   3     -12.881   5.083  21.624  0.00  0.00    -0.301 N 
ATOM     54  H   SER A   3     -12.375   4.248  21.909  0.00  0.00    +0.150 HD
BRANCH  51  55
ATOM     55  CA  ILE A   2     -14.902   3.670  21.856  0.00  0.00    +0.162 C 
BRANCH  55  58
ATOM     56  C   LEU A   1     -15.325   3.929  19.442  0.00  0.00    +0.262 C 
ATOM     57  O   LEU A   1     -14.193   4.374  19.252  0.00  0.00    -0.270 OA
ATOM     58  N   ILE A   2     -15.768   3.498  20.674  0.00  0.00    -0.299 N 
ATOM     59  H   ILE A   2     -16.756   3.330  20.831  0.00  0.00    +0.150 HD
BRANCH  56  60
ATOM     60  CA  LEU A   1     -16.273   3.746  18.242  0.00  0.00    +0.148 C 
BRANCH  60  61
ATOM     61  N   LEU A   1     -16.369   5.047  17.497  0.00  0.00    +0.227 N 
ATOM     62  H1  LEU A   1     -16.776   5.783  18.089  0.00  0.00    +0.200 HD
ATOM     63  H2  LEU A   1     -16.922   5.001  16.633  0.00  0.00    +0.200 HD
ATOM     64  H3  LEU A   1     -15.421   5.386  17.265  0.00  0.00    +0.200 HD
ENDBRANCH  60  61
BRANCH  60  65
ATOM     65  CB  LEU A   1     -15.668   2.664  17.335  0.00  0.00    +0.067 C 
BRANCH  65  66
ATOM     66  CG  LEU A   1     -16.102   1.216  17.618  0.00  0.00    -0.011 C 
ATOM     67  CD2 LEU A   1     -17.481   1.217  18.286  0.00  0.00    +0.007 C 
ATOM     68  CD1 LEU A   1     -16.142   0.373  16.344  0.00  0.00    +0.007 C 
ENDBRANCH  65  66
ENDBRANCH  60  65
ENDBRANCH  56  60
ENDBRANCH  55  58
BRANCH  55  69
ATOM     69  CB  ILE A   2     -13.836   2.555  22.011  0.00  0.00    +0.015 C 
ATOM     70  CG2 ILE A   2     -13.582   2.284  23.501  0.00  0.00    +0.010 C 
BRANCH  69  71
ATOM     71  CG1 ILE A   2     -14.176   1.256  21.247  0.00  0.00    +0.002 C 
ATOM     72  CD1 ILE A   2     -13.202   0.936  20.120  0.00  0.00    +0.004 C 
ENDBRANCH  69  71
ENDBRANCH  55  69
ENDBRANCH  51  55
ENDBRANCH  50  53
BRANCH  50  73
ATOM     73  CB  SER A   3     -11.394   6.272  23.183  0.00  0.00    +0.187 C 
BRANCH  73  74
ATOM     74  OG  SER A   3     -10.022   5.932  22.952  0.00  0.00    -0.393 OA
ATOM     75  H   SER A   3      -9.645   5.681  23.818  0.00  0.00    +0.209 HD
ENDBRANCH  73  74
ENDBRANCH  50  73
ENDBRANCH  46  50
ENDBRANCH  45  48
ENDBRANCH  41  45
ENDBRANCH  40  43
BRANCH  40  76
ATOM     76  CB  LEU A   5      -8.866  10.656  15.618  0.00  0.00    +0.034 C 
BRANCH  76  77
ATOM     77  CG  LEU A   5      -9.493  11.777  14.767  0.00  0.00    -0.015 C 
ATOM     78  CD2 LEU A   5      -9.251  11.579  13.271  0.00  0.00    +0.007 C 
ATOM     79  CD1 LEU A   5     -10.998  11.854  15.044  0.00  0.00    +0.007 C 
ENDBRANCH  76  77
ENDBRANCH  40  76
ENDBRANCH  36  40
ENDBRANCH  34  38
ENDBRANCH  30  34
ENDBRANCH  28  32
ENDBRANCH  24  28
ENDBRANCH  23  26
BRANCH  23  80
ATOM     80  CB  ASN A   8     -18.343   2.709  13.087  0.00  0.00    +0.127 C 
BRANCH  80  81
ATOM     81  CG  ASN A   8     -18.300   3.051  14.558  0.00  0.00    +0.213 C 
ATOM     82  OD1 ASN A   8     -17.577   3.903  15.049  0.00  0.00    -0.276 OA
ATOM     83  ND2 ASN A   8     -19.132   2.302  15.338  0.00  0.00    -0.329 N 
ATOM     84 HD21 ASN A   8     -19.740   1.575  14.988  0.00  0.00    +0.145 HD
ATOM     85 HD22 ASN A   8     -19.135   2.484  16.335  0.00  0.00    +0.145 HD
ENDBRANCH  80  81
ENDBRANCH  23  80
ENDBRANCH  19  23
ENDBRANCH  18  21
BRANCH  18  86
ATOM     86  CB  PHE A   9     -18.529   1.415   8.088  0.00  0.00    +0.067 C 
BRANCH  86  87
ATOM     87  CG  PHE A   9     -19.923   1.276   8.648  0.00  0.00    -0.045 A 
ATOM     88  CD2 PHE A   9     -20.361   0.055   9.178  0.00  0.00    +0.003 A 
ATOM     89  CD1 PHE A   9     -20.811   2.359   8.610  0.00  0.00    +0.003 A 
ATOM     90  CE2 PHE A   9     -21.659  -0.079   9.671  0.00  0.00    +0.000 A 
ATOM     91  CE1 PHE A   9     -22.109   2.225   9.105  0.00  0.00    +0.000 A 
ATOM     92  CZ  PHE A   9     -22.532   1.006   9.635  0.00  0.00    +0.000 A 
ENDBRANCH  86  87
ENDBRANCH  18  86
ENDBRANCH  14  18
ENDBRANCH  13  16
BRANCH  13  93
ATOM     93  CB  LEU A  10     -15.095   1.539   4.874  0.00  0.00    +0.034 C 
BRANCH  93  94
ATOM     94  CG  LEU A  10     -15.415   0.224   4.136  0.00  0.00    -0.015 C 
ATOM     95  CD2 LEU A  10     -14.586   0.143   2.852  0.00  0.00    +0.007 C 
ATOM     96  CD1 LEU A  10     -15.151  -1.018   4.991  0.00  0.00    +0.007 C 
ENDBRANCH  93  94
ENDBRANCH  13  93
ENDBRANCH   6  13
ENDBRANCH   2   9
ENDBRANCH   1   4
BRANCH   1  97
ATOM     97  C   GLN A  12     -10.256   7.081   4.449  0.00  0.00    +0.234 C 
ATOM     98  O   GLN A  12      -9.084   6.868   4.145  0.00  0.00    -0.274 OA
ATOM     99  N   ILE A  13     -11.224   7.353   3.508  0.00  0.00    -0.302 N 
ATOM    100  H   ILE A  13     -12.204   7.364   3.795  0.00  0.00    +0.149 HD
BRANCH  99 101
ATOM    101  CA  ILE A  13     -10.882   7.571   2.104  0.00  0.00    +0.162 C 
BRANCH 101 102
ATOM    102  C   ILE A  13     -10.918   9.100   1.874  0.00  0.00    +0.234 C 
ATOM    103  O   ILE A  13      -9.887   9.758   1.716  0.00  0.00    -0.274 OA
ATOM    104  N   LEU A  14     -12.170   9.686   1.849  0.00  0.00    -0.302 N 
ATOM    105  H   LEU A  14     -12.974   9.071   1.700  0.00  0.00    +0.149 HD
BRANCH 104 106
ATOM    106  CA  LEU A  14     -12.300  11.114   1.544  0.00  0.00    +0.159 C 
BRANCH 106 107
ATOM    107  C   LEU A  14     -12.629  11.867   2.859  0.00  0.00    +0.234 C 
ATOM    108  O   LEU A  14     -11.819  12.000   3.774  0.00  0.00    -0.274 OA
ATOM    109  N   LYS A  15     -13.896  12.403   2.925  0.00  0.00    -0.302 N 
ATOM    110  H   LYS A  15     -14.484  12.329   2.094  0.00  0.00    +0.149 HD
BRANCH 109 111
ATOM    111  CA  LYS A  15     -14.366  13.230   4.043  0.00  0.00    +0.159 C 
BRANCH 111 112
ATOM    112  C   LYS A  15     -15.075  12.395   5.144  0.00  0.00    +0.234 C 
ATOM    113  O   LYS A  15     -16.001  11.626   4.882  0.00  0.00    -0.274 OA
ATOM    114  N   LYS A  16     -14.567  12.524   6.418  0.00  0.00    -0.302 N 
ATOM    115  H   LYS A  16     -13.789  13.165   6.556  0.00  0.00    +0.149 HD
BRANCH 114 116
ATOM    116  CA  LYS A  16     -15.227  11.961   7.586  0.00  0.00    +0.159 C 
BRANCH 116 117
ATOM    117  C   LYS A  16     -15.364  13.033   8.688  0.00  0.00    +0.234 C 
ATOM    118  O   LYS A  16     -14.936  12.822   9.825  0.00  0.00    -0.274 OA
ATOM    119  N   ILE A  17     -15.814  14.276   8.289  0.00  0.00    -0.302 N 
ATOM    120  H   ILE A  17     -16.224  14.381   7.362  0.00  0.00    +0.149 HD
BRANCH 119 121
ATOM    121  CA  ILE A  17     -15.947  15.360   9.266  0.00  0.00    +0.162 C 
BRANCH 121 122
ATOM    122  C   ILE A  17     -17.346  15.351   9.912  0.00  0.00    +0.234 C 
ATOM    123  O   ILE A  17     -17.947  14.296  10.113  0.00  0.00    -0.274 OA
ATOM    124  N   ALA A  18     -17.890  16.576  10.216  0.00  0.00    -0.303 N 
ATOM    125  H   ALA A  18     -17.342  17.424  10.064  0.00  0.00    +0.149 HD
BRANCH 124 126
ATOM    126  CA  ALA A  18     -19.261  16.740  10.716  0.00  0.00    +0.156 C 
ATOM    127  CB  ALA A  18     -19.377  17.986  11.584  0.00  0.00    +0.037 C 
BRANCH 126 128
ATOM    128  C   ALA A  18     -20.286  16.772   9.546  0.00  0.00    +0.234 C 
ATOM    129  O   ALA A  18     -21.211  17.575   9.458  0.00  0.00    -0.274 OA
ATOM    130  N   ARG A  19     -20.168  15.703   8.683  0.00  0.00    -0.302 N 
ATOM    131  H   ARG A  19     -19.311  15.168   8.700  0.00  0.00    +0.149 HD
BRANCH 130 132
ATOM    132  CA  ARG A  19     -21.250  15.194   7.854  0.00  0.00    +0.159 C 
BRANCH 132 133
ATOM    133  C   ARG A  19     -22.204  14.379   8.768  0.00  0.00    +0.234 C 
ATOM    134  O   ARG A  19     -22.231  13.150   8.789  0.00  0.00    -0.274 OA
ATOM    135  N   LYS A  20     -23.120  15.131   9.469  0.00  0.00    -0.302 N 
ATOM    136  H   LYS A  20     -23.005  16.141   9.556  0.00  0.00    +0.149 HD
BRANCH 135 137
ATOM    137  CA  LYS A  20     -24.230  14.521  10.188  0.00  0.00    +0.159 C 
BRANCH 137 138
ATOM    138  C   LYS A  20     -25.503  14.495   9.316  0.00  0.00    +0.234 C 
ATOM    139  O   LYS A  20     -26.467  15.227   9.553  0.00  0.00    -0.274 OA
ATOM    140  N   UNK A  21     -25.488  13.566   8.307  0.00  0.00    -0.304 N 
ATOM    141  H   UNK A  21     -24.808  12.820   8.426  0.00  0.00    +0.149 HD
BRANCH 140 142
ATOM    142  C   UNK A  21     -26.741  12.989   7.789  0.00  0.00    +0.144 C 
BRANCH 142 143
ATOM    143  C   UNK A  21     -26.658  11.435   7.837  0.00  0.00    +0.064 C 
ATOM    144  O   UNK A  21     -27.040  10.839   6.796  0.00  0.00    -0.548 OA
ATOM    145  O   UNK A  21     -26.337  10.985   8.983  0.00  0.00    -0.548 OA
ENDBRANCH 142 143
BRANCH 142 146
ATOM    146  C   UNK A  21     -26.918  13.360   6.315  0.00  0.00    +0.184 C 
BRANCH 146 147
ATOM    147  O   UNK A  21     -27.091  14.778   6.149  0.00  0.00    -0.393 OA
ATOM    148  H   UNK A  21     -26.302  15.163   6.611  0.00  0.00    +0.209 HD
ENDBRANCH 146 147
ENDBRANCH 142 146
ENDBRANCH 140 142
ENDBRANCH 137 138
BRANCH 137 149
ATOM    149  CB  LYS A  20     -24.470  15.227  11.534  0.00  0.00    +0.032 C 
BRANCH 149 150
ATOM    150  CG  LYS A  20     -23.172  15.466  12.323  0.00  0.00    +0.007 C 
BRANCH 150 151
ATOM    151  CD  LYS A  20     -23.013  16.910  12.829  0.00  0.00    +0.051 C 
BRANCH 151 152
ATOM    152  CE  LYS A  20     -22.652  16.980  14.313  0.00  0.00    +0.127 C 
BRANCH 152 153
ATOM    153  NZ  LYS A  20     -21.922  15.766  14.721  0.00  0.00    +0.218 N 
ATOM    154  HZ1 LYS A  20     -22.527  14.938  14.782  0.00  0.00    +0.199 HD
ATOM    155  HZ2 LYS A  20     -21.410  15.850  15.606  0.00  0.00    +0.199 HD
ATOM    156  HZ3 LYS A  20     -21.219  15.462  14.007  0.00  0.00    +0.199 HD
ENDBRANCH 152 153
ENDBRANCH 151 152
ENDBRANCH 150 151
ENDBRANCH 149 150
ENDBRANCH 137 149
ENDBRANCH 135 137
ENDBRANCH 132 133
BRANCH 132 157
ATOM    157  CB  ARG A  19     -20.684  14.361   6.698  0.00  0.00    +0.035 C 
BRANCH 157 158
ATOM    158  CG  ARG A  19     -19.176  14.106   6.810  0.00  0.00    +0.039 C 
BRANCH 158 159
ATOM    159  CD  ARG A  19     -18.838  12.625   6.726  0.00  0.00    +0.196 C 
BRANCH 159 160
ATOM    160  NE  ARG A  19     -19.825  11.810   7.443  0.00  0.00    -0.279 N 
ATOM    161  CZ  ARG A  19     -19.607  11.265   8.647  0.00  0.00    +0.341 C 
ATOM    162  NH1 ARG A  19     -18.400  11.273   9.219  0.00  0.00    -0.292 N 
ATOM    163  NH2 ARG A  19     -20.619  10.685   9.300  0.00  0.00    -0.292 N 
ATOM    164  HE  ARG A  19     -20.756  11.744   7.048  0.00  0.00    +0.258 HD
ATOM    165 HH11 ARG A  19     -17.609  11.709   8.760  0.00  0.00    +0.255 HD
ATOM    166 HH12 ARG A  19     -18.239  10.897  10.143  0.00  0.00    +0.255 HD
ATOM    167 HH21 ARG A  19     -21.565  10.745   8.946  0.00  0.00    +0.255 HD
ATOM    168 HH22 ARG A  19     -20.495  10.325  10.237  0.00  0.00    +0.255 HD
ENDBRANCH 159 160
ENDBRANCH 158 159
ENDBRANCH 157 158
ENDBRANCH 132 157
ENDBRANCH 130 132
ENDBRANCH 126 128
ENDBRANCH 124 126
ENDBRANCH 121 122
BRANCH 121 169
ATOM    169  CB  ILE A  17     -15.547  16.759   8.745  0.00  0.00    +0.015 C 
ATOM    170  CG2 ILE A  17     -14.180  17.156   9.320  0.00  0.00    +0.010 C 
BRANCH 169 171
ATOM    171  CG1 ILE A  17     -15.578  16.885   7.212  0.00  0.00    +0.002 C 
ATOM    172  CD1 ILE A  17     -14.203  16.799   6.563  0.00  0.00    +0.004 C 
ENDBRANCH 169 171
ENDBRANCH 121 169
ENDBRANCH 119 121
ENDBRANCH 116 117
BRANCH 116 173
ATOM    173  CB  LYS A  16     -14.457  10.740   8.114  0.00  0.00    +0.032 C 
BRANCH 173 174
ATOM    174  CG  LYS A  16     -12.945  10.981   8.239  0.00  0.00    +0.007 C 
BRANCH 174 175
ATOM    175  CD  LYS A  16     -12.314  10.024   9.258  0.00  0.00    +0.051 C 
BRANCH 175 176
ATOM    176  CE  LYS A  16     -13.017  10.020  10.611  0.00  0.00    +0.127 C 
BRANCH 176 177
ATOM    177  NZ  LYS A  16     -12.782  11.291  11.334  0.00  0.00    +0.218 N 
ATOM    178  HZ1 LYS A  16     -11.793  11.416  11.585  0.00  0.00    +0.199 HD
ATOM    179  HZ2 LYS A  16     -13.318  11.312  12.213  0.00  0.00    +0.199 HD
ATOM    180  HZ3 LYS A  16     -13.079  12.106  10.782  0.00  0.00    +0.199 HD
ENDBRANCH 176 177
ENDBRANCH 175 176
ENDBRANCH 174 175
ENDBRANCH 173 174
ENDBRANCH 116 173
ENDBRANCH 114 116
ENDBRANCH 111 112
BRANCH 111 181
ATOM    181  CB  LYS A  15     -15.301  14.307   3.477  0.00  0.00    +0.032 C 
BRANCH 181 182
ATOM    182  CG  LYS A  15     -16.449  14.769   4.378  0.00  0.00    +0.007 C 
BRANCH 182 183
ATOM    183  CD  LYS A  15     -17.757  14.768   3.572  0.00  0.00    +0.051 C 
BRANCH 183 184
ATOM    184  CE  LYS A  15     -17.822  15.908   2.568  0.00  0.00    +0.127 C 
BRANCH 184 185
ATOM    185  NZ  LYS A  15     -18.044  15.343   1.213  0.00  0.00    +0.218 N 
ATOM    186  HZ1 LYS A  15     -17.275  14.716   0.935  0.00  0.00    +0.199 HD
ATOM    187  HZ2 LYS A  15     -18.097  16.080   0.497  0.00  0.00    +0.199 HD
ATOM    188  HZ3 LYS A  15     -18.915  14.798   1.157  0.00  0.00    +0.199 HD
ENDBRANCH 184 185
ENDBRANCH 183 184
ENDBRANCH 182 183
ENDBRANCH 181 182
ENDBRANCH 111 181
ENDBRANCH 109 111
ENDBRANCH 106 107
BRANCH 106 189
ATOM    189  CB  LEU A  14     -13.389  11.342   0.490  0.00  0.00    +0.034 C 
BRANCH 189 190
ATOM    190  CG  LEU A  14     -13.434  10.294  -0.641  0.00  0.00    -0.015 C 
ATOM    191  CD1 LEU A  14     -14.676   9.404  -0.572  0.00  0.00    +0.007 C 
ATOM    192  CD2 LEU A  14     -13.382  11.002  -1.997  0.00  0.00    +0.007 C 
ENDBRANCH 189 190
ENDBRANCH 106 189
ENDBRANCH 104 106
ENDBRANCH 101 102
BRANCH 101 193
ATOM    193  CB  ILE A  13     -11.828   6.796   1.158  0.00  0.00    +0.015 C 
ATOM    194  CG2 ILE A  13     -11.392   6.939  -0.308  0.00  0.00    +0.010 C 
BRANCH 193 195
ATOM    195  CG1 ILE A  13     -11.867   5.303   1.561  0.00  0.00    +0.002 C 
ATOM    196  CD1 ILE A  13     -10.493   4.647   1.606  0.00  0.00    +0.004 C 
ENDBRANCH 193 195
ENDBRANCH 101 193
ENDBRANCH  99 101
ENDBRANCH   1  97
BRANCH   1 197
ATOM    197  CB  GLN A  12      -9.961   7.926   6.774  0.00  0.00    +0.041 C 
BRANCH 197 198
ATOM    198  CG  GLN A  12     -10.176   9.382   6.375  0.00  0.00    +0.098 C 
BRANCH 198 199
ATOM    199  CD  GLN A  12      -8.872   9.985   5.908  0.00  0.00    +0.211 C 
ATOM    200  OE1 GLN A  12      -8.759  10.615   4.862  0.00  0.00    -0.276 OA
ATOM    201  NE2 GLN A  12      -7.824   9.822   6.761  0.00  0.00    -0.329 N 
ATOM    202 HE21 GLN A  12      -7.823   9.041   7.418  0.00  0.00    +0.145 HD
ATOM    203 HE22 GLN A  12      -6.919  10.127   6.427  0.00  0.00    +0.145 HD
ENDBRANCH 198 199
ENDBRANCH 197 198
ENDBRANCH   1 197
TORSDOF 85
ENDMDL
